 +-------------------------------------------------+
 |                                                 |
 |      CCC   AA    SSS  TTTTT  EEEEE  PPPP        |
 |     C     A  A  S       T    E      P   P       |
 |     C     AAAA   SS     T    EEE    PPPP        |
 |     C     A  A     S    T    E      P           |
 |      CCC  A  A  SSS     T    EEEEE  P           |
 |                                                 |
 +-------------------------------------------------+
 |                                                 |
 | Welcome to Academic Release CASTEP version 18.1 |          
 | Ab Initio Total Energy Program                  |
 |                                                 |
 | Authors:                                        |
 | M. Segall, M. Probert, C. Pickard, P. Hasnip,   |
 | S. Clark, K. Refson, J. R. Yates, M. Payne      |
 |                                                 |
 | Contributors:                                   |
 | P. Lindan, P. Haynes, J. White, V. Milman,      |
 | N. Govind, M. Gibson, P. Tulip, V. Cocula,      |
 | B. Montanari, D. Quigley, M. Glover,            |
 | L. Bernasconi, A. Perlov, M. Plummer,           |
 | E. McNellis, J. Meyer, J. Gale, D. Jochym       |
 | J. Aarons, B. Walker, R. Gillen, D. Jones       |
 | T. Green, I. J. Bush, C. J. Armstrong,          |
 | E. J. Higgins, E. L. Brown, M. S. McFly,        |
 | J. Wilkins, B-C. Shih, P. J. P. Byrne           |
 |                                                 |
 | Copyright (c) 2000 - 2017                       |
 |                                                 |
 |     Distributed under the terms of an           |
 |     Agreement between the United Kingdom        |
 |     Car-Parrinello (UKCP) Consortium,           |
 |     Daresbury Laboratory and Accelrys, Inc.     |
 |                                                 |
 | Please cite                                     |
 |                                                 |
 |     "First principles methods using CASTEP"     |
 |                                                 |
 |         Zeitschrift fuer Kristallographie       |
 |           220(5-6) pp. 567-570 (2005)           |
 |                                                 |
 | S. J. Clark, M. D. Segall, C. J. Pickard,       |
 | P. J. Hasnip, M. J. Probert, K. Refson,         |
 | M. C. Payne                                     |
 |                                                 |
 |       in all publications arising from          |
 |              your use of CASTEP                 |
 |                                                 |
 +-------------------------------------------------+


 Compiled for linux_x86_64_gfortran4.8 on Thu, 19 Jul 2018 15:33:51 +0100
 from code version 70483bd0ad64+  Sun, 10 Dec 2017 12:18:29 +0000
 Compiler: GNU Fortran 4.8.5; Optimisation: fast
 MATHLIBS: Intel MKL(2018.0.0) (LAPACK version 3.7.0)
 FFT Lib : mkl
 Fundamental constants values: CODATA 2014

 Run started: Sun, 11 Nov 2018 14:25:24 +0000

 Atomic calculation performed for Sn:
 1s2 2s2 2p6 3s2 3p6 3d10 4s2 4p6 4d10 5s2 5p2

 Converged in 79 iterations to an ae energy of -168090.064 eV


 Pseudo atomic calculation performed for Sn 4d10 5s2 5p2

 Converged in 32 iterations to a total energy of -2044.6352 eV

 Calculation not parallelised.

 ************************************ Title ************************************
 

 ***************************** General Parameters ******************************
  
 output verbosity                               : normal  (1)
 write checkpoint data to                       : ./Sn-20183-5175-14.check
 type of calculation                            : geometry optimization
 stress calculation                             : on
 density difference calculation                 : off
 electron localisation func (ELF) calculation   : off
 Hirshfeld analysis                             : off
 unlimited duration calculation
 timing information                             : on
 memory usage estimate                          : on
 write extra output files                       : on
 write final potential to formatted file        : off
 write final density to formatted file          : off
 write structure in CELL formatted file         : on
 write BibTeX reference list                    : off
 write OTFG pseudopotential files               : off
 write electrostatic potential file             : off
 write bands file                               : off
 checkpoint writing                             : off
  
 output         length unit                     : A
 output           mass unit                     : amu
 output           time unit                     : ps
 output         charge unit                     : e
 output           spin unit                     : hbar/2
 output         energy unit                     : eV
 output          force unit                     : eV/A
 output       velocity unit                     : A/ps
 output       pressure unit                     : GPa
 output     inv_length unit                     : 1/A
 output      frequency unit                     : cm-1
 output force constant unit                     : eV/A**2
 output         volume unit                     : A**3
 output   IR intensity unit                     : (D/A)**2/amu
 output         dipole unit                     : D
 output         efield unit                     : eV/A/e
 output        entropy unit                     : J/mol/K
  
 wavefunctions paging                           : none
 random number generator seed                   : randomised (142524796)
 data distribution                              : optimal for this architecture
 optimization strategy                          : maximize speed(+++)

 *********************** Exchange-Correlation Parameters ***********************
  
 using functional                               : Perdew Burke Ernzerhof
 relativistic treatment                         : Koelling-Harmon
 DFT+D: Semi-empirical dispersion correction    : off

 ************************* Pseudopotential Parameters **************************
  
 pseudopotential representation                 : reciprocal space
 <beta|phi> representation                      : reciprocal space
 spin-orbit coupling                            : off

 **************************** Basis Set Parameters *****************************
  
 plane wave basis set cut-off                   :   350.0000   eV
 size of standard grid                          :     1.7500
 size of   fine   gmax                          :    16.7730   1/A
 finite basis set correction                    : none

 **************************** Electronic Parameters ****************************
  
 number of  electrons                           :  28.00    
 net charge of system                           :  0.000    
 treating system as non-spin-polarized
 number of bands                                :         18

 ********************* Electronic Minimization Parameters **********************
  
 Method: Treating system as metallic with density mixing treatment of electrons,
         and number of  SD  steps               :          1
         and number of  CG  steps               :          4
  
 total energy / atom convergence tol.           : 0.1000E-04   eV
 eigen-energy convergence tolerance             : 0.1000E-05   eV
 max force / atom convergence tol.              : ignored
 convergence tolerance window                   :          3   cycles
 max. number of SCF cycles                      :       1000
 number of fixed-spin iterations                :         10
 smearing scheme                                : Gaussian
 smearing width                                 : 0.2000       eV
 Fermi energy convergence tolerance             : 0.2721E-13   eV
 periodic dipole correction                     : NONE

 ************************** Density Mixing Parameters **************************
  
 density-mixing scheme                          : Pulay
 max. length of mixing history                  :         20
 charge density mixing amplitude                : 0.8000    
 cut-off energy for mixing                      :  350.0       eV

 *********************** Population Analysis Parameters ************************
  
 Population analysis with cutoff                :  3.000       A
 Population analysis output                     : summary and pdos components

 ********************** Geometry Optimization Parameters ***********************
  
 optimization method                            : LBFGS
 max. no. of LBFGS updates                      : unbounded
 variable cell method                           : fixed basis size
 max. number of steps                           :          3
 estimated bulk modulus                         :  500.0       GPa
 estimated <frequency>                          :  1668.       cm-1
 geom line minimiser                            : on
 with line minimiser tolerance                  :     0.4000
 total energy convergence tolerance             : 0.2000E-04   eV/atom
        max ionic |force| tolerance             : 0.5000E-01   eV/A
 max ionic |displacement| tolerance             : 0.1000E-02   A
   max |stress component| tolerance             : 0.1000       GPa
 convergence tolerance window                   :          2   steps
 backup results every                           : 2147483647   steps
 write geom trajectory file                     : off

 *******************************************************************************
  

                           -------------------------------
                                      Unit Cell
                           -------------------------------
        Real Lattice(A)                      Reciprocal Lattice(1/A)
     3.5249800     0.0000000     0.0000000        1.782474030  -0.077758730  -0.011538616
     0.3215101     7.3700205     0.0000000        0.000000000   0.852532943  -0.307830329
     0.1875084     3.0463419     8.4368128        0.000000000   0.000000000   0.744734469

                       Lattice parameters(A)       Cell Angles
                    a =      3.524980          alpha =   70.115180
                    b =      7.377030          beta  =   88.802460
                    c =      8.971910          gamma =   87.502110

                       Current cell volume =           219.181437       A**3
                                   density =             1.083212   AMU/A**3
                                           =             1.798716     g/cm^3

                           -------------------------------
                                     Cell Contents
                           -------------------------------
                         Total number of ions in cell =    2
                      Total number of species in cell =    1
                        Max number of any one species =    2

            xxxxxxxxxxxxxxxxxxxxxxxxxxxxxxxxxxxxxxxxxxxxxxxxxxxxxxxxxxxx
            x  Element    Atom        Fractional coordinates of atoms  x
            x            Number           u          v          w      x
            x----------------------------------------------------------x
            x  Sn           1         0.140971   0.755306   0.530429   x 
            x  Sn           2         0.636899   0.021535   0.159030   x 
            xxxxxxxxxxxxxxxxxxxxxxxxxxxxxxxxxxxxxxxxxxxxxxxxxxxxxxxxxxxx


                         No user defined ionic velocities

                           -------------------------------
                                   Details of Species
                           -------------------------------

                               Mass of species in AMU
                                    Sn  118.7100000

                          Electric Quadrupole Moment (Barn)
                                    Sn    1.0000000 No Isotope Defined

                          Files used for pseudopotentials:
                                    Sn 3|2.2|7|7|9|50:51:42(qc=5)

                           -------------------------------
                              k-Points For BZ Sampling
                           -------------------------------
                       MP grid size for SCF calculation is  3  2  2
                            with an offset of   0.000  0.000  0.000
                       Number of kpoints used =             6

                           -------------------------------
                               Symmetry and Constraints
                           -------------------------------

                      Maximum deviation from symmetry = 0.442532E-15     ANG

                      Number of symmetry operations   =           2
                      Number of ionic constraints     =           3
                      Point group of crystal =     2: Ci, -1, -1
                      Space group of crystal =     2: P-1, -P 1

             Set iprint > 1 for details on symmetry rotations/translations

                         Centre of mass is constrained
             Set iprint > 1 for details of linear ionic constraints

                         Number of cell constraints= 0
                         Cell constraints are:  1 2 3 4 5 6

                         External pressure/stress (GPa)
                          0.00000   0.00000   0.00000
                                    0.00000   0.00000
                                              0.00000
  
+---------------- MEMORY AND SCRATCH DISK ESTIMATES PER PROCESS --------------+
|                                                     Memory          Disk    |
| Baseline code, static data and system overhead       36.0 MB         0.0 MB |
| BLAS internal memory storage                          0.0 MB         0.0 MB |
| Model and support data                               87.8 MB         0.0 MB |
| Electronic energy minimisation requirements          24.5 MB         0.0 MB |
| Force calculation requirements                        5.6 MB         0.0 MB |
| Stress calculation requirements                       6.2 MB         0.0 MB |
|                                               ----------------------------- |
| Approx. total storage required per process          148.4 MB         0.0 MB |
|                                                                             |
| Requirements will fluctuate during execution and may exceed these estimates |
+-----------------------------------------------------------------------------+
Calculating total energy with cut-off of  350.000 eV.
------------------------------------------------------------------------ <-- SCF
SCF loop      Energy           Fermi           Energy gain       Timer   <-- SCF
                               energy          per atom          (sec)   <-- SCF
------------------------------------------------------------------------ <-- SCF
Initial  -4.12288450E+003  0.00000000E+000                        14.36  <-- SCF
      1  -4.03518267E+003  2.29695755E+000  -4.38509137E+001      15.35  <-- SCF
      2  -4.09279737E+003 -1.18796390E+000   2.88073519E+001      15.90  <-- SCF
      3  -4.09458964E+003 -1.35418992E+000   8.96133311E-001      16.51  <-- SCF
      4  -4.09456737E+003 -1.26161501E+000  -1.11333505E-002      17.95  <-- SCF
      5  -4.09452387E+003 -1.14411547E+000  -2.17548070E-002      18.77  <-- SCF
      6  -4.09452353E+003 -1.09066547E+000  -1.68604326E-004      19.68  <-- SCF
      7  -4.09452664E+003 -1.04675074E+000   1.55514273E-003      20.80  <-- SCF
      8  -4.09452884E+003 -1.01877668E+000   1.10284128E-003      21.46  <-- SCF
      9  -4.09452959E+003 -1.01541227E+000   3.72080629E-004      22.18  <-- SCF
     10  -4.09452966E+003 -1.01502735E+000   3.49806066E-005      22.87  <-- SCF
     11  -4.09452967E+003 -1.01515954E+000   4.82680328E-006      23.53  <-- SCF
     12  -4.09452967E+003 -1.01507167E+000   9.60253084E-007      24.16  <-- SCF
------------------------------------------------------------------------ <-- SCF
 
Final energy, E             =  -4094.494323518     eV
Final free energy (E-TS)    =  -4094.529669464     eV
(energies not corrected for finite basis set)
 
NB est. 0K energy (E-0.5TS)      =  -4094.511996491     eV
 

WARNING - doing cell minimisation without finite basis correction:
        => now searching for a stationary and not minimum energy
 
+---------------- MEMORY AND SCRATCH DISK ESTIMATES PER PROCESS --------------+
|                                                     Memory          Disk    |
| Model and support data                               97.1 MB         0.0 MB |
| Electronic energy minimisation requirements          24.5 MB         0.0 MB |
| Geometry minimisation requirements                   30.6 MB         0.0 MB |
|                                               ----------------------------- |
| Approx. total storage required per process          152.2 MB         0.0 MB |
|                                                                             |
| Requirements will fluctuate during execution and may exceed these estimates |
+-----------------------------------------------------------------------------+
 

 ******************************** Symmetrised Forces ********************************
 *                                                                                  *
 *                           Cartesian components (eV/A)                            *
 * -------------------------------------------------------------------------------- *
 *                         x                    y                    z              *
 *                                                                                  *
 * Sn              1      0.00078              0.43213             -1.62505         *
 * Sn              2     -0.00078             -0.43213              1.62505         *
 *                                                                                  *
 ************************************************************************************

 *********** Symmetrised Stress Tensor ***********
 *                                               *
 *          Cartesian components (GPa)           *
 * --------------------------------------------- *
 *             x             y             z     *
 *                                               *
 *  x      0.530875     -0.002550     -0.001273  *
 *  y     -0.002550      0.310429     -0.998750  *
 *  z     -0.001273     -0.998750      3.804101  *
 *                                               *
 *  Pressure:   -1.5485                          *
 *                                               *
 *************************************************
 LBFGS: finished iteration     0 with enthalpy= -4.09452967E+003 eV
  
 +-----------+-----------------+-----------------+------------+-----+ <-- LBFGS
 | Parameter |      value      |    tolerance    |    units   | OK? | <-- LBFGS
 +-----------+-----------------+-----------------+------------+-----+ <-- LBFGS
 |  dE/ion   |   0.000000E+000 |   2.000000E-005 |         eV | No  | <-- LBFGS
 |  |F|max   |   1.681526E+000 |   5.000000E-002 |       eV/A | No  | <-- LBFGS
 |  |dR|max  |   3.527871E-016 |   1.000000E-003 |          A | No  | <-- LBFGS
 |   Smax    |   3.804101E+000 |   1.000000E-001 |        GPa | No  | <-- LBFGS
 +-----------+-----------------+-----------------+------------+-----+ <-- LBFGS
  

================================================================================
 Starting LBFGS iteration          1 ...
================================================================================
  
 +------------+-------------+-------------+-----------------+ <-- min LBFGS
 |    Step    |   lambda    |   F.delta'  |    enthalpy     | <-- min LBFGS
 +------------+-------------+-------------+-----------------+ <-- min LBFGS
 |  previous  |    0.000000 |    0.267524 |    -4094.529669 | <-- min LBFGS
 +------------+-------------+-------------+-----------------+ <-- min LBFGS
  

--------------------------------------------------------------------------------
 LBFGS: starting iteration         1 with trial guess (lambda=  1.000000)
--------------------------------------------------------------------------------

                           -------------------------------
                                      Unit Cell
                           -------------------------------
        Real Lattice(A)              Reciprocal Lattice(1/A)
     3.5237325     0.0000060     0.0000030        1.783105243  -0.077770187  -0.011517556
     0.3214089     7.3684958     0.0049075       -0.000001188   0.852915320  -0.309182335
     0.1874544     3.0513293     8.4174450       -0.000000633  -0.000497233   0.746628299

                       Lattice parameters(A)       Cell Angles
                    a =      3.523732          alpha =   70.004946
                    b =      7.375504          beta  =   88.800518
                    c =      8.955397          gamma =   87.502283

                Current cell volume =           218.502876 A**3

                           -------------------------------
                                     Cell Contents
                           -------------------------------

            xxxxxxxxxxxxxxxxxxxxxxxxxxxxxxxxxxxxxxxxxxxxxxxxxxxxxxxxxxxxxxxxx
            x  Element         Atom        Fractional coordinates of atoms  x
            x                 Number           u          v          w      x
            x---------------------------------------------------------------x
            x  Sn                1         0.140969   0.755419   0.530270   x
            x  Sn                2         0.636901   0.021422   0.159188   x
            xxxxxxxxxxxxxxxxxxxxxxxxxxxxxxxxxxxxxxxxxxxxxxxxxxxxxxxxxxxxxxxxx


------------------------------------------------------------------------ <-- SCF
SCF loop      Energy           Fermi           Energy gain       Timer   <-- SCF
                               energy          per atom          (sec)   <-- SCF
------------------------------------------------------------------------ <-- SCF
Initial  -4.09457338E+003  0.00000000E+000                        28.00  <-- SCF
      1  -4.09462697E+003 -9.71538714E-001   2.67929536E-002      28.90  <-- SCF
      2  -4.09462831E+003 -9.71599763E-001   6.69083889E-004      30.07  <-- SCF
      3  -4.09455048E+003 -9.78299969E-001  -3.89126897E-002      31.08  <-- SCF
      4  -4.09454991E+003 -9.87391030E-001  -2.84233106E-004      32.00  <-- SCF
      5  -4.09454973E+003 -9.95711328E-001  -9.15257335E-005      32.92  <-- SCF
      6  -4.09454964E+003 -1.00475929E+000  -4.65997668E-005      33.67  <-- SCF
      7  -4.09454967E+003 -1.00640952E+000   1.60038968E-005      34.34  <-- SCF
      8  -4.09454968E+003 -1.00655288E+000   7.23823412E-006      34.96  <-- SCF
      9  -4.09454969E+003 -1.00603365E+000   2.41438172E-006      35.56  <-- SCF
------------------------------------------------------------------------ <-- SCF
 
Final energy, E             =  -4094.514993772     eV
Final free energy (E-TS)    =  -4094.549687945     eV
(energies not corrected for finite basis set)
 
NB est. 0K energy (E-0.5TS)      =  -4094.532340859     eV
 

 ******************************** Symmetrised Forces ********************************
 *                                                                                  *
 *                           Cartesian components (eV/A)                            *
 * -------------------------------------------------------------------------------- *
 *                         x                    y                    z              *
 *                                                                                  *
 * Sn              1      0.00049              0.43244             -1.62672         *
 * Sn              2     -0.00049             -0.43244              1.62672         *
 *                                                                                  *
 ************************************************************************************

 *********** Symmetrised Stress Tensor ***********
 *                                               *
 *          Cartesian components (GPa)           *
 * --------------------------------------------- *
 *             x             y             z     *
 *                                               *
 *  x      0.513816     -0.002454     -0.001235  *
 *  y     -0.002454      0.304778     -1.002237  *
 *  z     -0.001235     -1.002237      3.808609  *
 *                                               *
 *  Pressure:   -1.5424                          *
 *                                               *
 *************************************************
  
 +------------+-------------+-------------+-----------------+ <-- min LBFGS
 |    Step    |   lambda    |   F.delta'  |    enthalpy     | <-- min LBFGS
 +------------+-------------+-------------+-----------------+ <-- min LBFGS
 |  previous  |    0.000000 |    0.267524 |    -4094.529669 | <-- min LBFGS
 | trial step |    1.000000 |    0.267493 |    -4094.549688 | <-- min LBFGS
 +------------+-------------+-------------+-----------------+ <-- min LBFGS
  

--------------------------------------------------------------------------------
 LBFGS: improving iteration         1 with line minimization (lambda= 13.229613)
--------------------------------------------------------------------------------

                           -------------------------------
                                      Unit Cell
                           -------------------------------
        Real Lattice(A)              Reciprocal Lattice(1/A)
     3.5084754     0.0000793     0.0000396        1.790861045  -0.077913233  -0.011249856
     0.3201705     7.3498494     0.0649240       -0.000015702   0.857755988  -0.326334981
     0.1867937     3.1123230     8.1805842       -0.000008541  -0.006807078   0.770650676

                       Lattice parameters(A)       Cell Angles
                    a =      3.508475          alpha =   68.633632
                    b =      7.357106          beta  =   88.776347
                    c =      8.754622          gamma =   87.504483

                Current cell volume =           210.241648 A**3

                           -------------------------------
                                     Cell Contents
                           -------------------------------

            xxxxxxxxxxxxxxxxxxxxxxxxxxxxxxxxxxxxxxxxxxxxxxxxxxxxxxxxxxxxxxxxx
            x  Element         Atom        Fractional coordinates of atoms  x
            x                 Number           u          v          w      x
            x---------------------------------------------------------------x
            x  Sn                1         0.140948   0.756812   0.528330   x
            x  Sn                2         0.636923   0.020029   0.161128   x
            xxxxxxxxxxxxxxxxxxxxxxxxxxxxxxxxxxxxxxxxxxxxxxxxxxxxxxxxxxxxxxxxx


------------------------------------------------------------------------ <-- SCF
SCF loop      Energy           Fermi           Energy gain       Timer   <-- SCF
                               energy          per atom          (sec)   <-- SCF
------------------------------------------------------------------------ <-- SCF
Initial  -4.10005437E+003  0.00000000E+000                        39.46  <-- SCF
      1  -4.10650865E+003 -3.75049484E-001   3.22713970E+000      40.28  <-- SCF
      2  -4.10673443E+003 -3.79843011E-001   1.12887953E-001      41.16  <-- SCF
      3  -4.09464490E+003 -6.02735395E-001  -6.04476217E+000      42.11  <-- SCF
      4  -4.09505008E+003 -6.04322934E-001   2.02588332E-001      42.98  <-- SCF
      5  -4.09476059E+003 -6.58794851E-001  -1.44744933E-001      43.76  <-- SCF
      6  -4.09475360E+003 -7.40911133E-001  -3.49580438E-003      44.82  <-- SCF
      7  -4.09475576E+003 -8.23439320E-001   1.07960113E-003      45.69  <-- SCF
      8  -4.09478648E+003 -8.90036845E-001   1.53591303E-002      46.78  <-- SCF
      9  -4.09479403E+003 -9.12715012E-001   3.77700392E-003      47.72  <-- SCF
     10  -4.09479475E+003 -9.05717812E-001   3.60895424E-004      48.57  <-- SCF
     11  -4.09479489E+003 -9.06917258E-001   6.95857484E-005      49.29  <-- SCF
     12  -4.09479491E+003 -9.03508459E-001   9.80267518E-006      49.95  <-- SCF
     13  -4.09479491E+003 -9.03485266E-001   2.03907522E-006      50.59  <-- SCF
     14  -4.09479492E+003 -9.03485765E-001   9.83828843E-007      51.24  <-- SCF
------------------------------------------------------------------------ <-- SCF
 
Final energy, E             =  -4094.762792583     eV
Final free energy (E-TS)    =  -4094.794916512     eV
(energies not corrected for finite basis set)
 
NB est. 0K energy (E-0.5TS)      =  -4094.778854547     eV
 

 ******************************** Symmetrised Forces ********************************
 *                                                                                  *
 *                           Cartesian components (eV/A)                            *
 * -------------------------------------------------------------------------------- *
 *                         x                    y                    z              *
 *                                                                                  *
 * Sn              1     -0.00174              0.43953             -1.63780         *
 * Sn              2      0.00174             -0.43953              1.63780         *
 *                                                                                  *
 ************************************************************************************

 *********** Symmetrised Stress Tensor ***********
 *                                               *
 *          Cartesian components (GPa)           *
 * --------------------------------------------- *
 *             x             y             z     *
 *                                               *
 *  x      0.372620     -0.003764     -0.001322  *
 *  y     -0.003764      0.299822     -1.013143  *
 *  z     -0.001322     -1.013143      3.840062  *
 *                                               *
 *  Pressure:   -1.5042                          *
 *                                               *
 *************************************************
  
 +------------+-------------+-------------+-----------------+ <-- min LBFGS
 |    Step    |   lambda    |   F.delta'  |    enthalpy     | <-- min LBFGS
 +------------+-------------+-------------+-----------------+ <-- min LBFGS
 |  previous  |    0.000000 |    0.267524 |    -4094.529669 | <-- min LBFGS
 | trial step |    1.000000 |    0.267493 |    -4094.549688 | <-- min LBFGS
 |  line step |   13.229613 |    0.265629 |    -4094.794917 | <-- min LBFGS
 +------------+-------------+-------------+-----------------+ <-- min LBFGS
  

--------------------------------------------------------------------------------
 LBFGS: improving iteration         1 with quad minimization (lambda= 26.459226)
--------------------------------------------------------------------------------

                           -------------------------------
                                      Unit Cell
                           -------------------------------
        Real Lattice(A)              Reciprocal Lattice(1/A)
     3.4919708     0.0001586     0.0000792        1.799327341  -0.078074503  -0.010937485
     0.3188309     7.3296782     0.1298480       -0.000031355   0.863361043  -0.346276504
     0.1860790     3.1783041     7.9243555       -0.000017462  -0.014146202   0.798569607

                       Lattice parameters(A)       Cell Angles
                    a =      3.491971          alpha =   67.100013
                    b =      7.337758          beta  =   88.749303
                    c =      8.540003          gamma =   87.507048

                Current cell volume =           201.382508 A**3

                           -------------------------------
                                     Cell Contents
                           -------------------------------

            xxxxxxxxxxxxxxxxxxxxxxxxxxxxxxxxxxxxxxxxxxxxxxxxxxxxxxxxxxxxxxxxx
            x  Element         Atom        Fractional coordinates of atoms  x
            x                 Number           u          v          w      x
            x---------------------------------------------------------------x
            x  Sn                1         0.140924   0.758318   0.526232   x
            x  Sn                2         0.636946   0.018523   0.163227   x
            xxxxxxxxxxxxxxxxxxxxxxxxxxxxxxxxxxxxxxxxxxxxxxxxxxxxxxxxxxxxxxxxx


------------------------------------------------------------------------ <-- SCF
SCF loop      Energy           Fermi           Energy gain       Timer   <-- SCF
                               energy          per atom          (sec)   <-- SCF
------------------------------------------------------------------------ <-- SCF
Initial  -4.10120604E+003  0.00000000E+000                        55.17  <-- SCF
      1  -4.10805456E+003 -1.92580918E-001   3.42425999E+000      55.96  <-- SCF
      2  -4.10839688E+003 -1.99394928E-001   1.71163473E-001      56.86  <-- SCF
      3  -4.09485810E+003 -5.05728321E-001  -6.76939189E+000      57.79  <-- SCF
      4  -4.09531737E+003 -5.07401655E-001   2.29636649E-001      58.69  <-- SCF
      5  -4.09501439E+003 -5.59481022E-001  -1.51492310E-001      59.44  <-- SCF
      6  -4.09500600E+003 -6.51297854E-001  -4.19290045E-003      60.49  <-- SCF
      7  -4.09501551E+003 -7.41865376E-001   4.75200659E-003      61.40  <-- SCF
      8  -4.09504501E+003 -8.11694509E-001   1.47541154E-002      62.51  <-- SCF
      9  -4.09505160E+003 -8.31383280E-001   3.29231858E-003      63.48  <-- SCF
     10  -4.09505221E+003 -8.25408916E-001   3.07114891E-004      64.28  <-- SCF
     11  -4.09505234E+003 -8.25933150E-001   6.17688241E-005      65.06  <-- SCF
     12  -4.09505236E+003 -8.22867658E-001   1.03913928E-005      65.78  <-- SCF
     13  -4.09505236E+003 -8.23052737E-001   2.45560595E-006      66.41  <-- SCF
     14  -4.09505237E+003 -8.22968398E-001   1.33215356E-006      67.03  <-- SCF
------------------------------------------------------------------------ <-- SCF
 
Final energy, E             =  -4095.011237936     eV
Final free energy (E-TS)    =  -4095.052365514     eV
(energies not corrected for finite basis set)
 
NB est. 0K energy (E-0.5TS)      =  -4095.031801725     eV
 

 ******************************** Symmetrised Forces ********************************
 *                                                                                  *
 *                           Cartesian components (eV/A)                            *
 * -------------------------------------------------------------------------------- *
 *                         x                    y                    z              *
 *                                                                                  *
 * Sn              1     -0.00056              0.42082             -1.55923         *
 * Sn              2      0.00056             -0.42082              1.55923         *
 *                                                                                  *
 ************************************************************************************

 *********** Symmetrised Stress Tensor ***********
 *                                               *
 *          Cartesian components (GPa)           *
 * --------------------------------------------- *
 *             x             y             z     *
 *                                               *
 *  x      0.304380     -0.005324     -0.001402  *
 *  y     -0.005324      0.290914     -0.967337  *
 *  z     -0.001402     -0.967337      3.666578  *
 *                                               *
 *  Pressure:   -1.4206                          *
 *                                               *
 *************************************************
  
 +------------+-------------+-------------+-----------------+ <-- min LBFGS
 |    Step    |   lambda    |   F.delta'  |    enthalpy     | <-- min LBFGS
 +------------+-------------+-------------+-----------------+ <-- min LBFGS
 |  previous  |    0.000000 |    0.267524 |    -4094.529669 | <-- min LBFGS
 | trial step |    1.000000 |    0.267493 |    -4094.549688 | <-- min LBFGS
 |  line step |   13.229613 |    0.265629 |    -4094.794917 | <-- min LBFGS
 |  quad step |   26.459226 |    0.249972 |    -4095.052366 | <-- min LBFGS
 +------------+-------------+-------------+-----------------+ <-- min LBFGS
  
 LBFGS: finished iteration     1 with enthalpy= -4.09505237E+003 eV
  
 +-----------+-----------------+-----------------+------------+-----+ <-- LBFGS
 | Parameter |      value      |    tolerance    |    units   | OK? | <-- LBFGS
 +-----------+-----------------+-----------------+------------+-----+ <-- LBFGS
 |  dE/ion   |   2.613480E-001 |   2.000000E-005 |         eV | No  | <-- LBFGS
 |  |F|max   |   1.615016E+000 |   5.000000E-002 |       eV/A | No  | <-- LBFGS
 |  |dR|max  |   3.400983E-002 |   1.000000E-003 |          A | No  | <-- LBFGS
 |   Smax    |   3.666578E+000 |   1.000000E-001 |        GPa | No  | <-- LBFGS
 +-----------+-----------------+-----------------+------------+-----+ <-- LBFGS
  

================================================================================
 Starting LBFGS iteration          2 ...
================================================================================
  
 +------------+-------------+-------------+-----------------+ <-- min LBFGS
 |    Step    |   lambda    |   F.delta'  |    enthalpy     | <-- min LBFGS
 +------------+-------------+-------------+-----------------+ <-- min LBFGS
 |  previous  |    0.000000 |    0.249876 |    -4095.052366 | <-- min LBFGS
 +------------+-------------+-------------+-----------------+ <-- min LBFGS
  
 geom_check_lambda: WARNING - unit cell strain > 10% and working with fixed basis size
 geom_check_lambda:         - suggest you reconsider your initial cell vectors
 geom_check_lambda:           and/or change to fixed basis quality calculation, 
 geom_check_lambda:           i.e. fixed_npw=.false.

--------------------------------------------------------------------------------
 LBFGS: starting iteration         2 with trial guess (lambda=  0.035020)
--------------------------------------------------------------------------------

                           -------------------------------
                                      Unit Cell
                           -------------------------------
        Real Lattice(A)              Reciprocal Lattice(1/A)
     3.4757475     0.0002410     0.0001189        1.807727829  -0.078244599  -0.010598511
     0.3175235     7.3095347     0.1947854       -0.000047694   0.869391630  -0.367829896
     0.1853823     3.2443120     7.6681337       -0.000026813  -0.022083008   0.828732865

                       Lattice parameters(A)       Cell Angles
                    a =      3.475747          alpha =   65.510993
                    b =      7.319020          beta  =   88.721174
                    c =      8.328277          gamma =   87.509515

                Current cell volume =           192.620253 A**3

                           -------------------------------
                                     Cell Contents
                           -------------------------------

            xxxxxxxxxxxxxxxxxxxxxxxxxxxxxxxxxxxxxxxxxxxxxxxxxxxxxxxxxxxxxxxxx
            x  Element         Atom        Fractional coordinates of atoms  x
            x                 Number           u          v          w      x
            x---------------------------------------------------------------x
            x  Sn                1         0.140901   0.759821   0.524139   x
            x  Sn                2         0.636969   0.017020   0.165320   x
            xxxxxxxxxxxxxxxxxxxxxxxxxxxxxxxxxxxxxxxxxxxxxxxxxxxxxxxxxxxxxxxxx


------------------------------------------------------------------------ <-- SCF
SCF loop      Energy           Fermi           Energy gain       Timer   <-- SCF
                               energy          per atom          (sec)   <-- SCF
------------------------------------------------------------------------ <-- SCF
Initial  -4.10148089E+003  0.00000000E+000                        70.99  <-- SCF
      1  -4.10737745E+003 -5.75371545E-002   2.94827643E+000      71.73  <-- SCF
      2  -4.10797224E+003 -6.63593070E-002   2.97395439E-001      72.68  <-- SCF
      3  -4.09513368E+003 -4.29979435E-001  -6.41927629E+000      73.66  <-- SCF
      4  -4.09554853E+003 -4.31496314E-001   2.07424056E-001      74.58  <-- SCF
      5  -4.09524896E+003 -4.89193751E-001  -1.49788855E-001      75.37  <-- SCF
      6  -4.09523934E+003 -5.83575257E-001  -4.80746387E-003      76.38  <-- SCF
      7  -4.09525897E+003 -6.77700624E-001   9.81355207E-003      77.24  <-- SCF
      8  -4.09527976E+003 -7.39135249E-001   1.03976286E-002      78.39  <-- SCF
      9  -4.09528558E+003 -7.58518936E-001   2.90919394E-003      79.25  <-- SCF
     10  -4.09528592E+003 -7.54325426E-001   1.67615221E-004      80.09  <-- SCF
     11  -4.09528599E+003 -7.53642152E-001   3.88081715E-005      80.76  <-- SCF
     12  -4.09528601E+003 -7.52015693E-001   8.50843301E-006      81.41  <-- SCF
     13  -4.09528602E+003 -7.51726776E-001   3.47549971E-006      82.05  <-- SCF
     14  -4.09528602E+003 -7.51691790E-001   1.11096207E-006      82.68  <-- SCF
------------------------------------------------------------------------ <-- SCF
 
Final energy, E             =  -4095.225307821     eV
Final free energy (E-TS)    =  -4095.286020096     eV
(energies not corrected for finite basis set)
 
NB est. 0K energy (E-0.5TS)      =  -4095.255663958     eV
 

 ******************************** Symmetrised Forces ********************************
 *                                                                                  *
 *                           Cartesian components (eV/A)                            *
 * -------------------------------------------------------------------------------- *
 *                         x                    y                    z              *
 *                                                                                  *
 * Sn              1     -0.00003              0.37442             -1.37652         *
 * Sn              2      0.00003             -0.37442              1.37652         *
 *                                                                                  *
 ************************************************************************************

 *********** Symmetrised Stress Tensor ***********
 *                                               *
 *          Cartesian components (GPa)           *
 * --------------------------------------------- *
 *             x             y             z     *
 *                                               *
 *  x      0.280952     -0.007389     -0.001688  *
 *  y     -0.007389      0.270327     -0.856110  *
 *  z     -0.001688     -0.856110      3.247734  *
 *                                               *
 *  Pressure:   -1.2663                          *
 *                                               *
 *************************************************
  
 +------------+-------------+-------------+-----------------+ <-- min LBFGS
 |    Step    |   lambda    |   F.delta'  |    enthalpy     | <-- min LBFGS
 +------------+-------------+-------------+-----------------+ <-- min LBFGS
 |  previous  |    0.000000 |    0.249876 |    -4095.052366 | <-- min LBFGS
 | trial step |    0.035020 |    0.218475 |    -4095.286020 | <-- min LBFGS
 +------------+-------------+-------------+-----------------+ <-- min LBFGS
  
 geom_check_lambda: WARNING - unit cell strain > 10% and working with fixed basis size
 geom_check_lambda:         - suggest you reconsider your initial cell vectors
 geom_check_lambda:           and/or change to fixed basis quality calculation, 
 geom_check_lambda:           i.e. fixed_npw=.false.

--------------------------------------------------------------------------------
 LBFGS: improving iteration         2 with line minimization (lambda=  0.052530)
--------------------------------------------------------------------------------

                           -------------------------------
                                      Unit Cell
                           -------------------------------
        Real Lattice(A)              Reciprocal Lattice(1/A)
     3.4676358     0.0002822     0.0001387        1.811957549  -0.078332754  -0.010418060
     0.3168698     7.2994630     0.2272540       -0.000055832   0.872583939  -0.379272444
     0.1850339     3.2773159     7.5400228       -0.000031656  -0.026297978   0.844742526

                       Lattice parameters(A)       Cell Angles
                    a =      3.467636          alpha =   64.694794
                    b =      7.309871          beta  =   88.706749
                    c =      8.223563          gamma =   87.510821

                Current cell volume =           188.268805 A**3

                           -------------------------------
                                     Cell Contents
                           -------------------------------

            xxxxxxxxxxxxxxxxxxxxxxxxxxxxxxxxxxxxxxxxxxxxxxxxxxxxxxxxxxxxxxxxx
            x  Element         Atom        Fractional coordinates of atoms  x
            x                 Number           u          v          w      x
            x---------------------------------------------------------------x
            x  Sn                1         0.140889   0.760572   0.523092   x
            x  Sn                2         0.636981   0.016269   0.166366   x
            xxxxxxxxxxxxxxxxxxxxxxxxxxxxxxxxxxxxxxxxxxxxxxxxxxxxxxxxxxxxxxxxx


------------------------------------------------------------------------ <-- SCF
SCF loop      Energy           Fermi           Energy gain       Timer   <-- SCF
                               energy          per atom          (sec)   <-- SCF
------------------------------------------------------------------------ <-- SCF
Initial  -4.09709090E+003  0.00000000E+000                        86.67  <-- SCF
      1  -4.09827304E+003 -3.80644886E-001   5.91071259E-001      87.49  <-- SCF
      2  -4.09838102E+003 -3.81892361E-001   5.39899482E-002      88.68  <-- SCF
      3  -4.09539542E+003 -5.40217279E-001  -1.49279794E+000      89.69  <-- SCF
      4  -4.09538303E+003 -5.92520736E-001  -6.19797022E-003      90.62  <-- SCF
      5  -4.09538340E+003 -6.45465066E-001   1.88305537E-004      91.76  <-- SCF
      6  -4.09538764E+003 -7.05784930E-001   2.11612655E-003      92.84  <-- SCF
      7  -4.09538899E+003 -7.19480191E-001   6.76119035E-004      93.90  <-- SCF
      8  -4.09538901E+003 -7.19746201E-001   1.24905163E-005      94.89  <-- SCF
      9  -4.09538909E+003 -7.19082463E-001   3.80241672E-005      95.66  <-- SCF
     10  -4.09538912E+003 -7.17155404E-001   1.65460558E-005      96.37  <-- SCF
     11  -4.09538913E+003 -7.16781711E-001   2.69264699E-006      97.00  <-- SCF
     12  -4.09538913E+003 -7.16541888E-001   9.46572128E-007      97.64  <-- SCF
------------------------------------------------------------------------ <-- SCF
 
Final energy, E             =  -4095.315935757     eV
Final free energy (E-TS)    =  -4095.389130410     eV
(energies not corrected for finite basis set)
 
NB est. 0K energy (E-0.5TS)      =  -4095.352533084     eV
 

 ******************************** Symmetrised Forces ********************************
 *                                                                                  *
 *                           Cartesian components (eV/A)                            *
 * -------------------------------------------------------------------------------- *
 *                         x                    y                    z              *
 *                                                                                  *
 * Sn              1     -0.00204              0.33678             -1.23083         *
 * Sn              2      0.00204             -0.33678              1.23083         *
 *                                                                                  *
 ************************************************************************************

 *********** Symmetrised Stress Tensor ***********
 *                                               *
 *          Cartesian components (GPa)           *
 * --------------------------------------------- *
 *             x             y             z     *
 *                                               *
 *  x      0.275695     -0.008385     -0.002009  *
 *  y     -0.008385      0.256598     -0.776532  *
 *  z     -0.002009     -0.776532      2.947723  *
 *                                               *
 *  Pressure:   -1.1600                          *
 *                                               *
 *************************************************
  
 +------------+-------------+-------------+-----------------+ <-- min LBFGS
 |    Step    |   lambda    |   F.delta'  |    enthalpy     | <-- min LBFGS
 +------------+-------------+-------------+-----------------+ <-- min LBFGS
 |  previous  |    0.000000 |    0.249876 |    -4095.052366 | <-- min LBFGS
 | trial step |    0.035020 |    0.218475 |    -4095.286020 | <-- min LBFGS
 |  line step |    0.052530 |    0.196556 |    -4095.389130 | <-- min LBFGS
 +------------+-------------+-------------+-----------------+ <-- min LBFGS
  
 geom_check_lambda: WARNING - unit cell strain > 10% and working with fixed basis size
 geom_check_lambda:         - suggest you reconsider your initial cell vectors
 geom_check_lambda:           and/or change to fixed basis quality calculation, 
 geom_check_lambda:           i.e. fixed_npw=.false.
 LBFGS: finished iteration     2 with enthalpy= -4.09538913E+003 eV
  
 +-----------+-----------------+-----------------+------------+-----+ <-- LBFGS
 | Parameter |      value      |    tolerance    |    units   | OK? | <-- LBFGS
 +-----------+-----------------+-----------------+------------+-----+ <-- LBFGS
 |  dE/ion   |   1.683824E-001 |   2.000000E-005 |         eV | No  | <-- LBFGS
 |  |F|max   |   1.276074E+000 |   5.000000E-002 |       eV/A | No  | <-- LBFGS
 |  |dR|max  |   2.396717E-002 |   1.000000E-003 |          A | No  | <-- LBFGS
 |   Smax    |   2.947723E+000 |   1.000000E-001 |        GPa | No  | <-- LBFGS
 +-----------+-----------------+-----------------+------------+-----+ <-- LBFGS
  

================================================================================
 Starting LBFGS iteration          3 ...
================================================================================
  
 +------------+-------------+-------------+-----------------+ <-- min LBFGS
 |    Step    |   lambda    |   F.delta'  |    enthalpy     | <-- min LBFGS
 +------------+-------------+-------------+-----------------+ <-- min LBFGS
 |  previous  |    0.000000 |    0.196431 |    -4095.389130 | <-- min LBFGS
 +------------+-------------+-------------+-----------------+ <-- min LBFGS
  
 geom_check_lambda: WARNING - unit cell strain > 10% and working with fixed basis size
 geom_check_lambda:         - suggest you reconsider your initial cell vectors
 geom_check_lambda:           and/or change to fixed basis quality calculation, 
 geom_check_lambda:           i.e. fixed_npw=.false.

--------------------------------------------------------------------------------
 LBFGS: starting iteration         3 with trial guess (lambda=  0.180708)
--------------------------------------------------------------------------------

                           -------------------------------
                                      Unit Cell
                           -------------------------------
        Real Lattice(A)              Reciprocal Lattice(1/A)
     3.4513859     0.0003713     0.0001799        1.820490810  -0.078520220  -0.010033536
     0.3155740     7.2792436     0.2921921       -0.000073569   0.879369770  -0.403632733
     0.1843450     3.3432931     7.2837931       -0.000042002  -0.035274305   0.878817571

                       Lattice parameters(A)       Cell Angles
                    a =      3.451386          alpha =   63.017047
                    b =      7.291937          beta  =   88.677053
                    c =      8.016560          gamma =   87.513351

                Current cell volume =           179.621734 A**3

                           -------------------------------
                                     Cell Contents
                           -------------------------------

            xxxxxxxxxxxxxxxxxxxxxxxxxxxxxxxxxxxxxxxxxxxxxxxxxxxxxxxxxxxxxxxxx
            x  Element         Atom        Fractional coordinates of atoms  x
            x                 Number           u          v          w      x
            x---------------------------------------------------------------x
            x  Sn                1         0.140865   0.762071   0.521005   x
            x  Sn                2         0.637005   0.014770   0.168453   x
            xxxxxxxxxxxxxxxxxxxxxxxxxxxxxxxxxxxxxxxxxxxxxxxxxxxxxxxxxxxxxxxxx


------------------------------------------------------------------------ <-- SCF
SCF loop      Energy           Fermi           Energy gain       Timer   <-- SCF
                               energy          per atom          (sec)   <-- SCF
------------------------------------------------------------------------ <-- SCF
Initial  -4.10176793E+003  0.00000000E+000                       101.71  <-- SCF
      1  -4.10651382E+003  8.69845973E-002   2.37294634E+000     102.42  <-- SCF
      2  -4.10740808E+003  8.36748291E-002   4.47128598E-001     103.61  <-- SCF
      3  -4.09537045E+003 -3.20250770E-001  -6.01881524E+000     104.55  <-- SCF
      4  -4.09583078E+003 -3.21579015E-001   2.30165159E-001     105.56  <-- SCF
      5  -4.09552536E+003 -3.94143218E-001  -1.52710054E-001     106.35  <-- SCF
      6  -4.09552808E+003 -4.85072506E-001   1.36348078E-003     107.42  <-- SCF
      7  -4.09554152E+003 -5.84668504E-001   6.71776274E-003     108.33  <-- SCF
      8  -4.09555244E+003 -6.18097894E-001   5.46261433E-003     109.44  <-- SCF
      9  -4.09555845E+003 -6.51759110E-001   3.00347176E-003     110.16  <-- SCF
     10  -4.09555860E+003 -6.46966203E-001   7.47973420E-005     111.01  <-- SCF
     11  -4.09555868E+003 -6.47847779E-001   3.79419473E-005     111.77  <-- SCF
     12  -4.09555869E+003 -6.46656294E-001   8.52340746E-006     112.51  <-- SCF
     13  -4.09555870E+003 -6.46490462E-001   3.10121099E-006     113.22  <-- SCF
     14  -4.09555870E+003 -6.46371625E-001   7.52796302E-007     113.88  <-- SCF
------------------------------------------------------------------------ <-- SCF
 
Final energy, E             =  -4095.458619060     eV
Final free energy (E-TS)    =  -4095.558700912     eV
(energies not corrected for finite basis set)
 
NB est. 0K energy (E-0.5TS)      =  -4095.508659986     eV
 

 ******************************** Symmetrised Forces ********************************
 *                                                                                  *
 *                           Cartesian components (eV/A)                            *
 * -------------------------------------------------------------------------------- *
 *                         x                    y                    z              *
 *                                                                                  *
 * Sn              1      0.00214              0.24646             -0.89089         *
 * Sn              2     -0.00214             -0.24646              0.89089         *
 *                                                                                  *
 ************************************************************************************

 *********** Symmetrised Stress Tensor ***********
 *                                               *
 *          Cartesian components (GPa)           *
 * --------------------------------------------- *
 *             x             y             z     *
 *                                               *
 *  x      0.273896     -0.010538     -0.003008  *
 *  y     -0.010538      0.219823     -0.574777  *
 *  z     -0.003008     -0.574777      2.177615  *
 *                                               *
 *  Pressure:   -0.8904                          *
 *                                               *
 *************************************************
  
 +------------+-------------+-------------+-----------------+ <-- min LBFGS
 |    Step    |   lambda    |   F.delta'  |    enthalpy     | <-- min LBFGS
 +------------+-------------+-------------+-----------------+ <-- min LBFGS
 |  previous  |    0.000000 |    0.196431 |    -4095.389130 | <-- min LBFGS
 | trial step |    0.180708 |    0.143185 |    -4095.558701 | <-- min LBFGS
 +------------+-------------+-------------+-----------------+ <-- min LBFGS
  
 geom_check_lambda: WARNING - unit cell strain > 10% and working with fixed basis size
 geom_check_lambda:         - suggest you reconsider your initial cell vectors
 geom_check_lambda:           and/or change to fixed basis quality calculation, 
 geom_check_lambda:           i.e. fixed_npw=.false.

--------------------------------------------------------------------------------
 LBFGS: improving iteration         3 with line minimization (lambda=  0.271062)
--------------------------------------------------------------------------------

                           -------------------------------
                                      Unit Cell
                           -------------------------------
        Real Lattice(A)              Reciprocal Lattice(1/A)
     3.4432609     0.0004159     0.0002004        1.824787644  -0.078617678  -0.009828054
     0.3149261     7.2691339     0.3246611       -0.000082392   0.882975860  -0.416614606
     0.1840005     3.3762817     7.1556783       -0.000047372  -0.040059393   0.896972386

                       Lattice parameters(A)       Cell Angles
                    a =      3.443261          alpha =   62.154547
                    b =      7.283192          beta  =   88.661842
                    c =      7.914346          gamma =   87.514689

                Current cell volume =           175.327939 A**3

                           -------------------------------
                                     Cell Contents
                           -------------------------------

            xxxxxxxxxxxxxxxxxxxxxxxxxxxxxxxxxxxxxxxxxxxxxxxxxxxxxxxxxxxxxxxxx
            x  Element         Atom        Fractional coordinates of atoms  x
            x                 Number           u          v          w      x
            x---------------------------------------------------------------x
            x  Sn                1         0.140854   0.762820   0.519962   x
            x  Sn                2         0.637017   0.014021   0.169496   x
            xxxxxxxxxxxxxxxxxxxxxxxxxxxxxxxxxxxxxxxxxxxxxxxxxxxxxxxxxxxxxxxxx


------------------------------------------------------------------------ <-- SCF
SCF loop      Energy           Fermi           Energy gain       Timer   <-- SCF
                               energy          per atom          (sec)   <-- SCF
------------------------------------------------------------------------ <-- SCF
Initial  -4.09732567E+003  0.00000000E+000                       117.89  <-- SCF
      1  -4.09831428E+003 -2.71655581E-001   4.94303313E-001     118.64  <-- SCF
      2  -4.09843676E+003 -2.73315022E-001   6.12394118E-002     119.73  <-- SCF
      3  -4.09564421E+003 -4.27523649E-001  -1.39627178E+000     120.77  <-- SCF
      4  -4.09562302E+003 -4.96702672E-001  -1.05983285E-002     121.70  <-- SCF
      5  -4.09562062E+003 -5.37427472E-001  -1.19897804E-003     122.87  <-- SCF
      6  -4.09562165E+003 -5.98239410E-001   5.17638572E-004     123.93  <-- SCF
      7  -4.09562120E+003 -6.07364806E-001  -2.26212364E-004     125.00  <-- SCF
      8  -4.09562161E+003 -6.12825579E-001   2.02428924E-004     126.04  <-- SCF
      9  -4.09562161E+003 -6.12388883E-001  -1.03769342E-006     126.87  <-- SCF
     10  -4.09562163E+003 -6.11524912E-001   1.24350373E-005     127.60  <-- SCF
     11  -4.09562164E+003 -6.10926061E-001   2.47943615E-006     128.24  <-- SCF
     12  -4.09562164E+003 -6.10839778E-001   9.42723333E-007     128.88  <-- SCF
------------------------------------------------------------------------ <-- SCF
 
Final energy, E             =  -4095.509384966     eV
Final free energy (E-TS)    =  -4095.621636961     eV
(energies not corrected for finite basis set)
 
NB est. 0K energy (E-0.5TS)      =  -4095.565510963     eV
 

 ******************************** Symmetrised Forces ********************************
 *                                                                                  *
 *                           Cartesian components (eV/A)                            *
 * -------------------------------------------------------------------------------- *
 *                         x                    y                    z              *
 *                                                                                  *
 * Sn              1      0.00058              0.17938             -0.64242         *
 * Sn              2     -0.00058             -0.17938              0.64242         *
 *                                                                                  *
 ************************************************************************************

 *********** Symmetrised Stress Tensor ***********
 *                                               *
 *          Cartesian components (GPa)           *
 * --------------------------------------------- *
 *             x             y             z     *
 *                                               *
 *  x      0.251613     -0.011520     -0.003433  *
 *  y     -0.011520      0.181787     -0.450551  *
 *  z     -0.003433     -0.450551      1.685304  *
 *                                               *
 *  Pressure:   -0.7062                          *
 *                                               *
 *************************************************
  
 +------------+-------------+-------------+-----------------+ <-- min LBFGS
 |    Step    |   lambda    |   F.delta'  |    enthalpy     | <-- min LBFGS
 +------------+-------------+-------------+-----------------+ <-- min LBFGS
 |  previous  |    0.000000 |    0.196431 |    -4095.389130 | <-- min LBFGS
 | trial step |    0.180708 |    0.143185 |    -4095.558701 | <-- min LBFGS
 |  line step |    0.271062 |    0.109016 |    -4095.621637 | <-- min LBFGS
 +------------+-------------+-------------+-----------------+ <-- min LBFGS
  
 geom_check_lambda: WARNING - unit cell strain > 10% and working with fixed basis size
 geom_check_lambda:         - suggest you reconsider your initial cell vectors
 geom_check_lambda:           and/or change to fixed basis quality calculation, 
 geom_check_lambda:           i.e. fixed_npw=.false.
 LBFGS: finished iteration     3 with enthalpy= -4.09562164E+003 eV
  
 +-----------+-----------------+-----------------+------------+-----+ <-- LBFGS
 | Parameter |      value      |    tolerance    |    units   | OK? | <-- LBFGS
 +-----------+-----------------+-----------------+------------+-----+ <-- LBFGS
 |  dE/ion   |   1.162533E-001 |   2.000000E-005 |         eV | No  | <-- LBFGS
 |  |F|max   |   6.669901E-001 |   5.000000E-002 |       eV/A | No  | <-- LBFGS
 |  |dR|max  |   2.242216E-002 |   1.000000E-003 |          A | No  | <-- LBFGS
 |   Smax    |   1.685304E+000 |   1.000000E-001 |        GPa | No  | <-- LBFGS
 +-----------+-----------------+-----------------+------------+-----+ <-- LBFGS
  
 LBFGS: WARNING - Geometry optimization failed to converge after          3 steps

================================================================================
 LBFGS: Final Configuration:
================================================================================

                           -------------------------------
                                      Unit Cell
                           -------------------------------
        Real Lattice(A)              Reciprocal Lattice(1/A)
     3.4432609     0.0004159     0.0002004        1.824787644  -0.078617678  -0.009828054
     0.3149261     7.2691339     0.3246611       -0.000082392   0.882975860  -0.416614606
     0.1840005     3.3762817     7.1556783       -0.000047372  -0.040059393   0.896972386

                       Lattice parameters(A)       Cell Angles
                    a =      3.443261          alpha =   62.154547
                    b =      7.283192          beta  =   88.661842
                    c =      7.914346          gamma =   87.514689

                Current cell volume =           175.327939 A**3

                           -------------------------------
                                     Cell Contents
                           -------------------------------

            xxxxxxxxxxxxxxxxxxxxxxxxxxxxxxxxxxxxxxxxxxxxxxxxxxxxxxxxxxxxxxxxx
            x  Element         Atom        Fractional coordinates of atoms  x
            x                 Number           u          v          w      x
            x---------------------------------------------------------------x
            x  Sn                1         0.140854   0.762820   0.519962   x
            x  Sn                2         0.637017   0.014021   0.169496   x
            xxxxxxxxxxxxxxxxxxxxxxxxxxxxxxxxxxxxxxxxxxxxxxxxxxxxxxxxxxxxxxxxx


 LBFGS: Final Enthalpy     = -4.09562164E+003 eV
 LBFGS: Final <frequency>  =    1722.57510 cm-1
 LBFGS: Final bulk modulus =      21.68061 GPa
  
  **********************************************************
  *** There were at least     8 warnings during this run ***
  *** => please check the whole of this file carefully!  ***
  **********************************************************

 ******************************** Symmetrised Forces ********************************
 *                                                                                  *
 *                           Cartesian components (eV/A)                            *
 * -------------------------------------------------------------------------------- *
 *                         x                    y                    z              *
 *                                                                                  *
 * Sn              1      0.00058              0.17938             -0.64242         *
 * Sn              2     -0.00058             -0.17938              0.64242         *
 *                                                                                  *
 ************************************************************************************

 *********** Symmetrised Stress Tensor ***********
 *                                               *
 *          Cartesian components (GPa)           *
 * --------------------------------------------- *
 *             x             y             z     *
 *                                               *
 *  x      0.251613     -0.011520     -0.003433  *
 *  y     -0.011520      0.181787     -0.450551  *
 *  z     -0.003433     -0.450551      1.685304  *
 *                                               *
 *  Pressure:   -0.7062                          *
 *                                               *
 *************************************************

 Pseudo atomic calculation performed for Sn 4d10 5s2 5p2

 Converged in 32 iterations to a total energy of -2044.6352 eV

Charge spilling parameter for spin component 1 = 0.31%

            Orbital Populations       
     Ion    Atom   Orbital             Charge
  -------------------------------------------
     Sn     1      Dzz                  2.000
     Sn     1      Dzy                  2.000
     Sn     1      Dzx                  2.000
     Sn     1      Dxx-yy               2.000
     Sn     1      Dxy                  2.000
     Sn     1      S                    1.905
     Sn     1      Px                   0.724
     Sn     1      Py                   0.528
     Sn     1      Pz                   0.843
     Sn     1      S                   -0.000
     Sn     2      Dzz                  2.000
     Sn     2      Dzy                  2.000
     Sn     2      Dzx                  2.000
     Sn     2      Dxx-yy               2.000
     Sn     2      Dxy                  2.000
     Sn     2      S                    1.905
     Sn     2      Px                   0.725
     Sn     2      Py                   0.528
     Sn     2      Pz                   0.843
     Sn     2      S                   -0.000
  -------------------------------------------
                           Total:      28.000
  -------------------------------------------

     Atomic Populations (Mulliken)
     -----------------------------
Species          Ion     s      p      d      f     Total  Charge (e)
=====================================================================
  Sn              1     1.90   2.10  10.00   0.00  14.00     0.00
  Sn              2     1.90   2.10  10.00   0.00  14.00     0.00
=====================================================================

                 Bond                   Population      Length (A)
======================================================================
======================================================================

Initialisation time =     12.90 s
Calculation time    =    118.87 s
Finalisation time   =      0.04 s
Total time          =    131.80 s
Peak Memory Use     = 328960 kB
 +-------------------------------------------------+
 |                                                 |
 |      CCC   AA    SSS  TTTTT  EEEEE  PPPP        |
 |     C     A  A  S       T    E      P   P       |
 |     C     AAAA   SS     T    EEE    PPPP        |
 |     C     A  A     S    T    E      P           |
 |      CCC  A  A  SSS     T    EEEEE  P           |
 |                                                 |
 +-------------------------------------------------+
 |                                                 |
 | Welcome to Academic Release CASTEP version 18.1 |          
 | Ab Initio Total Energy Program                  |
 |                                                 |
 | Authors:                                        |
 | M. Segall, M. Probert, C. Pickard, P. Hasnip,   |
 | S. Clark, K. Refson, J. R. Yates, M. Payne      |
 |                                                 |
 | Contributors:                                   |
 | P. Lindan, P. Haynes, J. White, V. Milman,      |
 | N. Govind, M. Gibson, P. Tulip, V. Cocula,      |
 | B. Montanari, D. Quigley, M. Glover,            |
 | L. Bernasconi, A. Perlov, M. Plummer,           |
 | E. McNellis, J. Meyer, J. Gale, D. Jochym       |
 | J. Aarons, B. Walker, R. Gillen, D. Jones       |
 | T. Green, I. J. Bush, C. J. Armstrong,          |
 | E. J. Higgins, E. L. Brown, M. S. McFly,        |
 | J. Wilkins, B-C. Shih, P. J. P. Byrne           |
 |                                                 |
 | Copyright (c) 2000 - 2017                       |
 |                                                 |
 |     Distributed under the terms of an           |
 |     Agreement between the United Kingdom        |
 |     Car-Parrinello (UKCP) Consortium,           |
 |     Daresbury Laboratory and Accelrys, Inc.     |
 |                                                 |
 | Please cite                                     |
 |                                                 |
 |     "First principles methods using CASTEP"     |
 |                                                 |
 |         Zeitschrift fuer Kristallographie       |
 |           220(5-6) pp. 567-570 (2005)           |
 |                                                 |
 | S. J. Clark, M. D. Segall, C. J. Pickard,       |
 | P. J. Hasnip, M. J. Probert, K. Refson,         |
 | M. C. Payne                                     |
 |                                                 |
 |       in all publications arising from          |
 |              your use of CASTEP                 |
 |                                                 |
 +-------------------------------------------------+


 Compiled for linux_x86_64_gfortran4.8 on Thu, 19 Jul 2018 15:33:51 +0100
 from code version 70483bd0ad64+  Sun, 10 Dec 2017 12:18:29 +0000
 Compiler: GNU Fortran 4.8.5; Optimisation: fast
 MATHLIBS: Intel MKL(2018.0.0) (LAPACK version 3.7.0)
 FFT Lib : mkl
 Fundamental constants values: CODATA 2014

 Run started: Sun, 11 Nov 2018 14:27:36 +0000

 Atomic calculation performed for Sn:
 1s2 2s2 2p6 3s2 3p6 3d10 4s2 4p6 4d10 5s2 5p2

 Converged in 79 iterations to an ae energy of -168090.064 eV


 Pseudo atomic calculation performed for Sn 4d10 5s2 5p2

 Converged in 32 iterations to a total energy of -2044.6352 eV

 Calculation not parallelised.

 ************************************ Title ************************************
 

 ***************************** General Parameters ******************************
  
 output verbosity                               : normal  (1)
 write checkpoint data to                       : ./Sn-20183-5175-14.check
 type of calculation                            : geometry optimization
 stress calculation                             : on
 density difference calculation                 : off
 electron localisation func (ELF) calculation   : off
 Hirshfeld analysis                             : off
 unlimited duration calculation
 timing information                             : on
 memory usage estimate                          : on
 write extra output files                       : on
 write final potential to formatted file        : off
 write final density to formatted file          : off
 write structure in CELL formatted file         : on
 write BibTeX reference list                    : off
 write OTFG pseudopotential files               : off
 write electrostatic potential file             : off
 write bands file                               : off
 checkpoint writing                             : off
  
 output         length unit                     : A
 output           mass unit                     : amu
 output           time unit                     : ps
 output         charge unit                     : e
 output           spin unit                     : hbar/2
 output         energy unit                     : eV
 output          force unit                     : eV/A
 output       velocity unit                     : A/ps
 output       pressure unit                     : GPa
 output     inv_length unit                     : 1/A
 output      frequency unit                     : cm-1
 output force constant unit                     : eV/A**2
 output         volume unit                     : A**3
 output   IR intensity unit                     : (D/A)**2/amu
 output         dipole unit                     : D
 output         efield unit                     : eV/A/e
 output        entropy unit                     : J/mol/K
  
 wavefunctions paging                           : none
 random number generator seed                   : randomised (142736638)
 data distribution                              : optimal for this architecture
 optimization strategy                          : maximize speed(+++)

 *********************** Exchange-Correlation Parameters ***********************
  
 using functional                               : Perdew Burke Ernzerhof
 relativistic treatment                         : Koelling-Harmon
 DFT+D: Semi-empirical dispersion correction    : off

 ************************* Pseudopotential Parameters **************************
  
 pseudopotential representation                 : reciprocal space
 <beta|phi> representation                      : reciprocal space
 spin-orbit coupling                            : off

 **************************** Basis Set Parameters *****************************
  
 plane wave basis set cut-off                   :   350.0000   eV
 size of standard grid                          :     1.7500
 size of   fine   gmax                          :    16.7730   1/A
 finite basis set correction                    : none

 **************************** Electronic Parameters ****************************
  
 number of  electrons                           :  28.00    
 net charge of system                           :  0.000    
 treating system as non-spin-polarized
 number of bands                                :         18

 ********************* Electronic Minimization Parameters **********************
  
 Method: Treating system as metallic with density mixing treatment of electrons,
         and number of  SD  steps               :          1
         and number of  CG  steps               :          4
  
 total energy / atom convergence tol.           : 0.1000E-04   eV
 eigen-energy convergence tolerance             : 0.1000E-05   eV
 max force / atom convergence tol.              : ignored
 convergence tolerance window                   :          3   cycles
 max. number of SCF cycles                      :       1000
 number of fixed-spin iterations                :         10
 smearing scheme                                : Gaussian
 smearing width                                 : 0.2000       eV
 Fermi energy convergence tolerance             : 0.2721E-13   eV
 periodic dipole correction                     : NONE

 ************************** Density Mixing Parameters **************************
  
 density-mixing scheme                          : Pulay
 max. length of mixing history                  :         20
 charge density mixing amplitude                : 0.8000    
 cut-off energy for mixing                      :  350.0       eV

 *********************** Population Analysis Parameters ************************
  
 Population analysis with cutoff                :  3.000       A
 Population analysis output                     : summary and pdos components

 ********************** Geometry Optimization Parameters ***********************
  
 optimization method                            : LBFGS
 max. no. of LBFGS updates                      : unbounded
 variable cell method                           : fixed basis size
 max. number of steps                           :          3
 estimated bulk modulus                         :  500.0       GPa
 estimated <frequency>                          :  1668.       cm-1
 geom line minimiser                            : on
 with line minimiser tolerance                  :     0.4000
 total energy convergence tolerance             : 0.2000E-04   eV/atom
        max ionic |force| tolerance             : 0.5000E-01   eV/A
 max ionic |displacement| tolerance             : 0.1000E-02   A
   max |stress component| tolerance             : 0.1000       GPa
 convergence tolerance window                   :          2   steps
 backup results every                           : 2147483647   steps
 write geom trajectory file                     : off

 *******************************************************************************
  

                           -------------------------------
                                      Unit Cell
                           -------------------------------
        Real Lattice(A)                      Reciprocal Lattice(1/A)
     3.4432609     0.0004159     0.0002004        1.824787644  -0.078617678  -0.009828054
     0.3149261     7.2691339     0.3246611       -0.000082392   0.882975860  -0.416614606
     0.1840005     3.3762817     7.1556783       -0.000047372  -0.040059393   0.896972386

[...]

                           -------------------------------
                                     Cell Contents
                           -------------------------------

            xxxxxxxxxxxxxxxxxxxxxxxxxxxxxxxxxxxxxxxxxxxxxxxxxxxxxxxxxxxxxxxxx
            x  Element         Atom        Fractional coordinates of atoms  x
            x                 Number           u          v          w      x
            x---------------------------------------------------------------x
            x  Sn                1         0.105308   0.696620   0.587180   x
            x  Sn                2         0.672563   0.080221   0.102278   x
            xxxxxxxxxxxxxxxxxxxxxxxxxxxxxxxxxxxxxxxxxxxxxxxxxxxxxxxxxxxxxxxxx


------------------------------------------------------------------------ <-- SCF
SCF loop      Energy           Fermi           Energy gain       Timer   <-- SCF
                               energy          per atom          (sec)   <-- SCF
------------------------------------------------------------------------ <-- SCF
Initial  -4.10045166E+003  0.00000000E+000                       351.96  <-- SCF
      1  -4.12796928E+003  6.48348678E+000   1.37588090E+001     353.97  <-- SCF
      2  -4.12831491E+003  6.44598130E+000   1.72815941E-001     355.69  <-- SCF
      3  -4.09798622E+003  6.66832739E+000  -1.51643447E+001     357.82  <-- SCF
      4  -4.09833356E+003  6.62337205E+000   1.73670647E-001     359.50  <-- SCF
      5  -4.09747589E+003  6.56855496E+000  -4.28834128E-001     361.74  <-- SCF
      6  -4.09749036E+003  6.56120231E+000   7.23223223E-003     364.19  <-- SCF
      7  -4.09749079E+003  6.55872897E+000   2.17978590E-004     366.59  <-- SCF
      8  -4.09749076E+003  6.55818247E+000  -1.44966608E-005     368.39  <-- SCF
      9  -4.09749077E+003  6.55809720E+000   1.79889845E-006     369.85  <-- SCF
     10  -4.09749077E+003  6.55808466E+000   3.48836318E-007     371.28  <-- SCF
     11  -4.09749077E+003  6.55809463E+000   1.62710906E-007     372.65  <-- SCF
------------------------------------------------------------------------ <-- SCF
 
Final energy, E             =  -4097.472533867     eV
Final free energy (E-TS)    =  -4097.490766893     eV
(energies not corrected for finite basis set)
 
NB est. 0K energy (E-0.5TS)      =  -4097.481650380     eV
 

 ******************************** Symmetrised Forces ********************************
 *                                                                                  *
 *                           Cartesian components (eV/A)                            *
 * -------------------------------------------------------------------------------- *
 *                         x                    y                    z              *
 *                                                                                  *
 * Sn              1     -0.05614             -0.00696              0.06934         *
 * Sn              2      0.05614              0.00696             -0.06934         *
 *                                                                                  *
 ************************************************************************************

 *********** Symmetrised Stress Tensor ***********
 *                                               *
 *          Cartesian components (GPa)           *
 * --------------------------------------------- *
 *             x             y             z     *
 *                                               *
 *  x      1.431844     -1.016781     -0.607601  *
 *  y     -1.016781      2.442847      1.227623  *
 *  z     -0.607601      1.227623      2.209257  *
 *                                               *
 *  Pressure:   -2.0280                          *
 *                                               *
 *************************************************
  
 +------------+-------------+-------------+-----------------+ <-- min LBFGS
 |    Step    |   lambda    |   F.delta'  |    enthalpy     | <-- min LBFGS
 +------------+-------------+-------------+-----------------+ <-- min LBFGS
 |  previous  |    0.000000 |    0.021628 |    -4097.487219 | <-- min LBFGS
 | trial step |    1.000000 |    0.019041 |    -4097.491764 | <-- min LBFGS
 |  line step |    8.358495 |   -0.025174 |    -4097.490767 | <-- min LBFGS
 +------------+-------------+-------------+-----------------+ <-- min LBFGS
  

--------------------------------------------------------------------------------
 LBFGS: improving iteration         9 with quad minimization (lambda=  4.168894)
--------------------------------------------------------------------------------

                           -------------------------------
                                      Unit Cell
                           -------------------------------
        Real Lattice(A)              Reciprocal Lattice(1/A)
     3.2412587     1.1648982     0.2256248        2.527916661  -1.714122633   0.382634542
     2.2942627     3.7975662     1.8550061       -0.915050263   2.768626977  -1.149049260
     1.3025290     3.6555264     7.7706934        0.145040239  -0.611151555   1.071763661

                       Lattice parameters(A)       Cell Angles
                    a =      3.451616          alpha =   41.497038
                    b =      4.808971          beta  =   70.041422
                    c =      8.685801          gamma =   42.291366

                Current cell volume =            56.492618 A**3

                           -------------------------------
                                     Cell Contents
                           -------------------------------

            xxxxxxxxxxxxxxxxxxxxxxxxxxxxxxxxxxxxxxxxxxxxxxxxxxxxxxxxxxxxxxxxx
            x  Element         Atom        Fractional coordinates of atoms  x
            x                 Number           u          v          w      x
            x---------------------------------------------------------------x
            x  Sn                1         0.105274   0.697106   0.586831   x
            x  Sn                2         0.672596   0.079735   0.102627   x
            xxxxxxxxxxxxxxxxxxxxxxxxxxxxxxxxxxxxxxxxxxxxxxxxxxxxxxxxxxxxxxxxx


------------------------------------------------------------------------ <-- SCF
SCF loop      Energy           Fermi           Energy gain       Timer   <-- SCF
                               energy          per atom          (sec)   <-- SCF
------------------------------------------------------------------------ <-- SCF
Initial  -4.09824188E+003  0.00000000E+000                       374.70  <-- SCF
      1  -4.10777245E+003  6.84156840E+000   4.76528580E+000     376.64  <-- SCF
      2  -4.10789711E+003  6.83564410E+000   6.23280433E-002     378.48  <-- SCF
      3  -4.09764192E+003  6.71820222E+000  -5.12759347E+000     380.79  <-- SCF
      4  -4.09774867E+003  6.71010977E+000   5.33723038E-002     382.67  <-- SCF
      5  -4.09749498E+003  6.71713282E+000  -1.26845294E-001     384.94  <-- SCF
      6  -4.09750025E+003  6.71188350E+000   2.63955816E-003     387.47  <-- SCF
      7  -4.09750036E+003  6.71063182E+000   5.22953368E-005     389.51  <-- SCF
      8  -4.09750035E+003  6.71053037E+000  -6.64547819E-006     391.05  <-- SCF
      9  -4.09750035E+003  6.71044857E+000   9.77959555E-007     392.50  <-- SCF
------------------------------------------------------------------------ <-- SCF
 
Final energy, E             =  -4097.482249419     eV
Final free energy (E-TS)    =  -4097.500348256     eV
(energies not corrected for finite basis set)
 
NB est. 0K energy (E-0.5TS)      =  -4097.491298837     eV
 

 ******************************** Symmetrised Forces ********************************
 *                                                                                  *
 *                           Cartesian components (eV/A)                            *
 * -------------------------------------------------------------------------------- *
 *                         x                    y                    z              *
 *                                                                                  *
 * Sn              1     -0.06151             -0.01454              0.10411         *
 * Sn              2      0.06151              0.01454             -0.10411         *
 *                                                                                  *
 ************************************************************************************

 *********** Symmetrised Stress Tensor ***********
 *                                               *
 *          Cartesian components (GPa)           *
 * --------------------------------------------- *
 *             x             y             z     *
 *                                               *
 *  x     -0.378304     -0.249281      0.262962  *
 *  y     -0.249281      1.613727      0.290949  *
 *  z      0.262962      0.290949      1.253300  *
 *                                               *
 *  Pressure:   -0.8296                          *
 *                                               *
 *************************************************
  
 +------------+-------------+-------------+-----------------+ <-- min LBFGS
 |    Step    |   lambda    |   F.delta'  |    enthalpy     | <-- min LBFGS
 +------------+-------------+-------------+-----------------+ <-- min LBFGS
 |  previous  |    0.000000 |    0.021628 |    -4097.487219 | <-- min LBFGS
 | trial step |    1.000000 |    0.019041 |    -4097.491764 | <-- min LBFGS
 |  line step |    8.358495 |   -0.025174 |    -4097.490767 | <-- min LBFGS
 |  quad step |    4.168894 |    0.004056 |    -4097.500348 | <-- min LBFGS
 +------------+-------------+-------------+-----------------+ <-- min LBFGS
  
 LBFGS: finished iteration     9 with enthalpy= -4.09750035E+003 eV
  
 +-----------+-----------------+-----------------+------------+-----+ <-- LBFGS
 | Parameter |      value      |    tolerance    |    units   | OK? | <-- LBFGS
 +-----------+-----------------+-----------------+------------+-----+ <-- LBFGS
 |  dE/ion   |   6.564827E-003 |   2.000000E-005 |         eV | No  | <-- LBFGS
 |  |F|max   |   1.217927E-001 |   5.000000E-002 |       eV/A | No  | <-- LBFGS
 |  |dR|max  |   1.964438E-003 |   1.000000E-003 |          A | No  | <-- LBFGS
 |   Smax    |   1.613727E+000 |   1.000000E-001 |        GPa | No  | <-- LBFGS
 +-----------+-----------------+-----------------+------------+-----+ <-- LBFGS
  

================================================================================
 Starting LBFGS iteration         10 ...
================================================================================
  
 +------------+-------------+-------------+-----------------+ <-- min LBFGS
 |    Step    |   lambda    |   F.delta'  |    enthalpy     | <-- min LBFGS
 +------------+-------------+-------------+-----------------+ <-- min LBFGS
 |  previous  |    0.000000 |    0.015571 |    -4097.500348 | <-- min LBFGS
 +------------+-------------+-------------+-----------------+ <-- min LBFGS
  

--------------------------------------------------------------------------------
 LBFGS: starting iteration        10 with trial guess (lambda=  1.000000)
--------------------------------------------------------------------------------

                           -------------------------------
                                      Unit Cell
                           -------------------------------
        Real Lattice(A)              Reciprocal Lattice(1/A)
     3.2878548     1.1167872     0.2003504        2.468022226  -1.713672659   0.411749952
     2.2822226     3.7273300     1.8332665       -0.880590831   2.803551940  -1.176519424
     1.2271071     3.6182043     7.7034381        0.145375135  -0.622621059   1.084913590

                       Lattice parameters(A)       Cell Angles
                    a =      3.478124          alpha =   41.740396
                    b =      4.739451          beta  =   71.239604
                    c =      8.598846          gamma =   43.113922

                Current cell volume =            56.212421 A**3

                           -------------------------------
                                     Cell Contents
                           -------------------------------

            xxxxxxxxxxxxxxxxxxxxxxxxxxxxxxxxxxxxxxxxxxxxxxxxxxxxxxxxxxxxxxxxx
            x  Element         Atom        Fractional coordinates of atoms  x
            x                 Number           u          v          w      x
            x---------------------------------------------------------------x
            x  Sn                1         0.105239   0.696652   0.587183   x
            x  Sn                2         0.672631   0.080189   0.102275   x
            xxxxxxxxxxxxxxxxxxxxxxxxxxxxxxxxxxxxxxxxxxxxxxxxxxxxxxxxxxxxxxxxx


------------------------------------------------------------------------ <-- SCF
SCF loop      Energy           Fermi           Energy gain       Timer   <-- SCF
                               energy          per atom          (sec)   <-- SCF
------------------------------------------------------------------------ <-- SCF
Initial  -4.10707436E+003  0.00000000E+000                       397.81  <-- SCF
      1  -4.10791094E+003  6.83668579E+000   4.18287734E-001     399.80  <-- SCF
      2  -4.10804020E+003  6.83101922E+000   6.46323174E-002     402.17  <-- SCF
      3  -4.09764715E+003  6.75079455E+000  -5.19652668E+000     404.47  <-- SCF
      4  -4.09776686E+003  6.74624221E+000   5.98535830E-002     406.44  <-- SCF
      5  -4.09750012E+003  6.77381421E+000  -1.33367503E-001     408.68  <-- SCF
      6  -4.09750529E+003  6.77074218E+000   2.58427100E-003     411.28  <-- SCF
      7  -4.09750539E+003  6.77005430E+000   4.84275422E-005     413.37  <-- SCF
      8  -4.09750537E+003  6.76958013E+000  -8.14412185E-006     414.94  <-- SCF
      9  -4.09750537E+003  6.76948749E+000   1.60657428E-006     416.38  <-- SCF
------------------------------------------------------------------------ <-- SCF
 
Final energy, E             =  -4097.487461428     eV
Final free energy (E-TS)    =  -4097.505373662     eV
(energies not corrected for finite basis set)
 
NB est. 0K energy (E-0.5TS)      =  -4097.496417545     eV
 

 ******************************** Symmetrised Forces ********************************
 *                                                                                  *
 *                           Cartesian components (eV/A)                            *
 * -------------------------------------------------------------------------------- *
 *                         x                    y                    z              *
 *                                                                                  *
 * Sn              1     -0.05008             -0.02859              0.08086         *
 * Sn              2      0.05008              0.02859             -0.08086         *
 *                                                                                  *
 ************************************************************************************

 *********** Symmetrised Stress Tensor ***********
 *                                               *
 *          Cartesian components (GPa)           *
 * --------------------------------------------- *
 *             x             y             z     *
 *                                               *
 *  x      0.850495     -0.375466     -0.666429  *
 *  y     -0.375466      1.156706      0.790562  *
 *  z     -0.666429      0.790562      0.802114  *
 *                                               *
 *  Pressure:   -0.9364                          *
 *                                               *
 *************************************************
  
 +------------+-------------+-------------+-----------------+ <-- min LBFGS
 |    Step    |   lambda    |   F.delta'  |    enthalpy     | <-- min LBFGS
 +------------+-------------+-------------+-----------------+ <-- min LBFGS
 |  previous  |    0.000000 |    0.015571 |    -4097.500348 | <-- min LBFGS
 | trial step |    1.000000 |   -0.005668 |    -4097.505374 | <-- min LBFGS
 +------------+-------------+-------------+-----------------+ <-- min LBFGS
  
 LBFGS: finished iteration    10 with enthalpy= -4.09750537E+003 eV
  
 +-----------+-----------------+-----------------+------------+-----+ <-- LBFGS
 | Parameter |      value      |    tolerance    |    units   | OK? | <-- LBFGS
 +-----------+-----------------+-----------------+------------+-----+ <-- LBFGS
 |  dE/ion   |   2.512703E-003 |   2.000000E-005 |         eV | No  | <-- LBFGS
 |  |F|max   |   9.932099E-002 |   5.000000E-002 |       eV/A | No  | <-- LBFGS
 |  |dR|max  |   2.058533E-003 |   1.000000E-003 |          A | No  | <-- LBFGS
 |   Smax    |   1.156706E+000 |   1.000000E-001 |        GPa | No  | <-- LBFGS
 +-----------+-----------------+-----------------+------------+-----+ <-- LBFGS
  

================================================================================
 Starting LBFGS iteration         11 ...
================================================================================
  
 +------------+-------------+-------------+-----------------+ <-- min LBFGS
 |    Step    |   lambda    |   F.delta'  |    enthalpy     | <-- min LBFGS
 +------------+-------------+-------------+-----------------+ <-- min LBFGS
 |  previous  |    0.000000 |    0.025331 |    -4097.505374 | <-- min LBFGS
 +------------+-------------+-------------+-----------------+ <-- min LBFGS
  

--------------------------------------------------------------------------------
 LBFGS: starting iteration        11 with trial guess (lambda=  1.000000)
--------------------------------------------------------------------------------

                           -------------------------------
                                      Unit Cell
                           -------------------------------
        Real Lattice(A)              Reciprocal Lattice(1/A)
     3.2742261     1.1216083     0.2058061        2.485347259  -1.726457777   0.398461811
     2.2880997     3.7144173     1.8221631       -0.889915835   2.811849726  -1.166186417
     1.2573640     3.5818733     7.6769383        0.144598291  -0.621124337   1.084567950

                       Lattice parameters(A)       Cell Angles
                    a =      3.467119          alpha =   41.830710
                    b =      4.727851          beta  =   70.903766
                    c =      8.564237          gamma =   42.771331

                Current cell volume =            55.589181 A**3

                           -------------------------------
                                     Cell Contents
                           -------------------------------

            xxxxxxxxxxxxxxxxxxxxxxxxxxxxxxxxxxxxxxxxxxxxxxxxxxxxxxxxxxxxxxxxx
            x  Element         Atom        Fractional coordinates of atoms  x
            x                 Number           u          v          w      x
            x---------------------------------------------------------------x
            x  Sn                1         0.105214   0.696688   0.587161   x
            x  Sn                2         0.672657   0.080153   0.102298   x
            xxxxxxxxxxxxxxxxxxxxxxxxxxxxxxxxxxxxxxxxxxxxxxxxxxxxxxxxxxxxxxxxx


------------------------------------------------------------------------ <-- SCF
SCF loop      Energy           Fermi           Energy gain       Timer   <-- SCF
                               energy          per atom          (sec)   <-- SCF
------------------------------------------------------------------------ <-- SCF
Initial  -4.09798491E+003  0.00000000E+000                       421.64  <-- SCF
      1  -4.10017326E+003  7.07014621E+000   1.09417445E+000     423.67  <-- SCF
      2  -4.10019699E+003  7.06586693E+000   1.18658790E-002     426.00  <-- SCF
      3  -4.09754927E+003  6.87972884E+000  -1.32386382E+000     428.25  <-- SCF
