 +-------------------------------------------------+
 |                                                 |
 |      CCC   AA    SSS  TTTTT  EEEEE  PPPP        |
 |     C     A  A  S       T    E      P   P       |
 |     C     AAAA   SS     T    EEE    PPPP        |
 |     C     A  A     S    T    E      P           |
 |      CCC  A  A  SSS     T    EEEEE  P           |
 |                                                 |
 +-------------------------------------------------+
 |                                                 |
 | Welcome to Academic Release CASTEP version 18.1 |          
 | Ab Initio Total Energy Program                  |
 |                                                 |
 | Authors:                                        |
 | M. Segall, M. Probert, C. Pickard, P. Hasnip,   |
 | S. Clark, K. Refson, J. R. Yates, M. Payne      |
 |                                                 |
 | Contributors:                                   |
 | P. Lindan, P. Haynes, J. White, V. Milman,      |
 | N. Govind, M. Gibson, P. Tulip, V. Cocula,      |
 | B. Montanari, D. Quigley, M. Glover,            |
 | L. Bernasconi, A. Perlov, M. Plummer,           |
 | E. McNellis, J. Meyer, J. Gale, D. Jochym       |
 | J. Aarons, B. Walker, R. Gillen, D. Jones       |
 | T. Green, I. J. Bush, C. J. Armstrong,          |
 | E. J. Higgins, E. L. Brown, M. S. McFly,        |
 | J. Wilkins, B-C. Shih, P. J. P. Byrne           |
 |                                                 |
 | Copyright (c) 2000 - 2017                       |
 |                                                 |
 |     Distributed under the terms of an           |
 |     Agreement between the United Kingdom        |
 |     Car-Parrinello (UKCP) Consortium,           |
 |     Daresbury Laboratory and Accelrys, Inc.     |
 |                                                 |
 | Please cite                                     |
 |                                                 |
 |     "First principles methods using CASTEP"     |
 |                                                 |
 |         Zeitschrift fuer Kristallographie       |
 |           220(5-6) pp. 567-570 (2005)           |
 |                                                 |
 | S. J. Clark, M. D. Segall, C. J. Pickard,       |
 | P. J. Hasnip, M. J. Probert, K. Refson,         |
 | M. C. Payne                                     |
 |                                                 |
 |       in all publications arising from          |
 |              your use of CASTEP                 |
 |                                                 |
 +-------------------------------------------------+


 Compiled for linux_x86_64_gfortran4.8 on Thu, 19 Jul 2018 15:33:51 +0100
 from code version 70483bd0ad64+  Sun, 10 Dec 2017 12:18:29 +0000
 Compiler: GNU Fortran 4.8.5; Optimisation: fast
 MATHLIBS: Intel MKL(2018.0.0) (LAPACK version 3.7.0)
 FFT Lib : mkl
 Fundamental constants values: CODATA 2014

 Run started: Sun, 11 Nov 2018 01:15:56 +0000

 Atomic calculation performed for Sn:
 1s2 2s2 2p6 3s2 3p6 3d10 4s2 4p6 4d10 5s2 5p2

 Converged in 79 iterations to an ae energy of -168090.064 eV


 Pseudo atomic calculation performed for Sn 4d10 5s2 5p2

 Converged in 27 iterations to a total energy of -2044.0517 eV

 Calculation not parallelised.

 ************************************ Title ************************************
 

 ***************************** General Parameters ******************************
  
 output verbosity                               : normal  (1)
 write checkpoint data to                       : ./Sn-18595-4976-1.check
 type of calculation                            : geometry optimization
 stress calculation                             : on
 density difference calculation                 : off
 electron localisation func (ELF) calculation   : off
 Hirshfeld analysis                             : off
 unlimited duration calculation
 timing information                             : on
 memory usage estimate                          : on
 write extra output files                       : on
 write final potential to formatted file        : off
 write final density to formatted file          : off
 write structure in CELL formatted file         : on
 write BibTeX reference list                    : off
 write OTFG pseudopotential files               : off
 write electrostatic potential file             : off
 write bands file                               : off
 checkpoint writing                             : off
  
 output         length unit                     : A
 output           mass unit                     : amu
 output           time unit                     : ps
 output         charge unit                     : e
 output           spin unit                     : hbar/2
 output         energy unit                     : eV
 output          force unit                     : eV/A
 output       velocity unit                     : A/ps
 output       pressure unit                     : GPa
 output     inv_length unit                     : 1/A
 output      frequency unit                     : cm-1
 output force constant unit                     : eV/A**2
 output         volume unit                     : A**3
 output   IR intensity unit                     : (D/A)**2/amu
 output         dipole unit                     : D
 output         efield unit                     : eV/A/e
 output        entropy unit                     : J/mol/K
  
 wavefunctions paging                           : none
 random number generator seed                   : randomised (11556326)
 data distribution                              : optimal for this architecture
 optimization strategy                          : maximize speed(+++)

 *********************** Exchange-Correlation Parameters ***********************
  
 using functional                               : Perdew Burke Ernzerhof
 relativistic treatment                         : Koelling-Harmon
 DFT+D: Semi-empirical dispersion correction    : off

 ************************* Pseudopotential Parameters **************************
  
 pseudopotential representation                 : reciprocal space
 <beta|phi> representation                      : reciprocal space
 spin-orbit coupling                            : off

 **************************** Basis Set Parameters *****************************
  
 plane wave basis set cut-off                   :   250.0000   eV
 size of standard grid                          :     1.7500
 size of   fine   gmax                          :    14.1758   1/A
 finite basis set correction                    : none

 **************************** Electronic Parameters ****************************
  
 number of  electrons                           :  28.00    
 net charge of system                           :  0.000    
 treating system as non-spin-polarized
 number of bands                                :         18

 ********************* Electronic Minimization Parameters **********************
  
 Method: Treating system as metallic with density mixing treatment of electrons,
         and number of  SD  steps               :          1
         and number of  CG  steps               :          4
  
 total energy / atom convergence tol.           : 0.1000E-04   eV
 eigen-energy convergence tolerance             : 0.1000E-05   eV
 max force / atom convergence tol.              : ignored
 convergence tolerance window                   :          3   cycles
 max. number of SCF cycles                      :       1000
 number of fixed-spin iterations                :         10
 smearing scheme                                : Gaussian
 smearing width                                 : 0.2000       eV
 Fermi energy convergence tolerance             : 0.2721E-13   eV
 periodic dipole correction                     : NONE

 ************************** Density Mixing Parameters **************************
  
 density-mixing scheme                          : Pulay
 max. length of mixing history                  :         20
 charge density mixing amplitude                : 0.8000    
 cut-off energy for mixing                      :  250.0       eV

 *********************** Population Analysis Parameters ************************
  
 Population analysis with cutoff                :  3.000       A
 Population analysis output                     : summary and pdos components

 ********************** Geometry Optimization Parameters ***********************
  
 optimization method                            : LBFGS
 max. no. of LBFGS updates                      : unbounded
 variable cell method                           : fixed basis size
 max. number of steps                           :          3
 estimated bulk modulus                         :  500.0       GPa
 estimated <frequency>                          :  1668.       cm-1
 geom line minimiser                            : on
 with line minimiser tolerance                  :     0.4000
 total energy convergence tolerance             : 0.2000E-04   eV/atom
        max ionic |force| tolerance             : 0.5000E-01   eV/A
 max ionic |displacement| tolerance             : 0.1000E-02   A
   max |stress component| tolerance             : 0.1000       GPa
 convergence tolerance window                   :          2   steps
 backup results every                           : 2147483647   steps
 write geom trajectory file                     : off

 *******************************************************************************
  

                           -------------------------------
                                      Unit Cell
                           -------------------------------
        Real Lattice(A)                      Reciprocal Lattice(1/A)
     2.5875100     0.0000000     0.0000000        2.428274792  -0.301684235  -0.323834593
     0.3510554     2.8256663     0.0000000        0.000000000   2.223611951  -0.165610002
     1.0591467     0.5531269     7.4267222        0.000000000   0.000000000   0.846024008

                       Lattice parameters(A)       Cell Angles
                    a =      2.587510          alpha =   84.817360
                    b =      2.847390          beta  =   81.905730
                    c =      7.522230          gamma =   82.917970

                       Current cell volume =            54.300032       A**3
                                   density =             4.372373   AMU/A**3
                                           =             7.260496     g/cm^3

                           -------------------------------
                                     Cell Contents
                           -------------------------------
                         Total number of ions in cell =    2
                      Total number of species in cell =    1
                        Max number of any one species =    2

            xxxxxxxxxxxxxxxxxxxxxxxxxxxxxxxxxxxxxxxxxxxxxxxxxxxxxxxxxxxx
            x  Element    Atom        Fractional coordinates of atoms  x
            x            Number           u          v          w      x
            x----------------------------------------------------------x
            x  Sn           1         0.986425   0.829098   0.598939   x 
            x  Sn           2         0.369788   0.233005   0.839366   x 
            xxxxxxxxxxxxxxxxxxxxxxxxxxxxxxxxxxxxxxxxxxxxxxxxxxxxxxxxxxxx


                         No user defined ionic velocities

                           -------------------------------
                                   Details of Species
                           -------------------------------

                               Mass of species in AMU
                                    Sn  118.7100000

                          Electric Quadrupole Moment (Barn)
                                    Sn    1.0000000 No Isotope Defined

                          Files used for pseudopotentials:
                                    Sn 3|2.2|7|7|9|50:51:42(qc=5)

                           -------------------------------
                              k-Points For BZ Sampling
                           -------------------------------
                       MP grid size for SCF calculation is  4  4  2
                            with an offset of   0.000  0.000  0.000
                       Number of kpoints used =            16

                           -------------------------------
                               Symmetry and Constraints
                           -------------------------------

                      Maximum deviation from symmetry = 0.188002E-14     ANG

                      Number of symmetry operations   =           2
                      Number of ionic constraints     =           3
                      Point group of crystal =     2: Ci, -1, -1
                      Space group of crystal =     2: P-1, -P 1

             Set iprint > 1 for details on symmetry rotations/translations

                         Centre of mass is constrained
             Set iprint > 1 for details of linear ionic constraints

                         Number of cell constraints= 0
                         Cell constraints are:  1 2 3 4 5 6

                         External pressure/stress (GPa)
                          0.00000   0.00000   0.00000
                                    0.00000   0.00000
                                              0.00000
  
+---------------- MEMORY AND SCRATCH DISK ESTIMATES PER PROCESS --------------+
|                                                     Memory          Disk    |
| Baseline code, static data and system overhead       36.0 MB         0.0 MB |
| BLAS internal memory storage                          0.0 MB         0.0 MB |
| Model and support data                               38.9 MB         0.0 MB |
| Electronic energy minimisation requirements           7.0 MB         0.0 MB |
| Force calculation requirements                        0.9 MB         0.0 MB |
| Stress calculation requirements                       1.0 MB         0.0 MB |
|                                               ----------------------------- |
| Approx. total storage required per process           82.0 MB         0.0 MB |
|                                                                             |
| Requirements will fluctuate during execution and may exceed these estimates |
+-----------------------------------------------------------------------------+
Calculating total energy with cut-off of  250.000 eV.
------------------------------------------------------------------------ <-- SCF
SCF loop      Energy           Fermi           Energy gain       Timer   <-- SCF
                               energy          per atom          (sec)   <-- SCF
------------------------------------------------------------------------ <-- SCF
Initial  -4.09424888E+003  0.00000000E+000                        13.96  <-- SCF
      1  -4.03306610E+003  8.94961723E+000  -3.05913875E+001      14.42  <-- SCF
      2  -4.08951937E+003  7.16184252E+000   2.82266332E+001      14.72  <-- SCF
      3  -4.09073603E+003  6.96190293E+000   6.08331378E-001      15.16  <-- SCF
      4  -4.09052317E+003  7.36078418E+000  -1.06431410E-001      15.61  <-- SCF
      5  -4.09052167E+003  7.47036804E+000  -7.50055714E-004      16.24  <-- SCF
      6  -4.09051556E+003  7.62004734E+000  -3.05355547E-003      16.68  <-- SCF
      7  -4.09051863E+003  7.67798667E+000   1.53410748E-003      17.12  <-- SCF
      8  -4.09051922E+003  7.69473426E+000   2.94827542E-004      17.50  <-- SCF
      9  -4.09051927E+003  7.69304531E+000   2.58078918E-005      17.85  <-- SCF
     10  -4.09051928E+003  7.69326997E+000   1.54972943E-006      18.17  <-- SCF
     11  -4.09051928E+003  7.69317259E+000   5.48870064E-007      18.45  <-- SCF
------------------------------------------------------------------------ <-- SCF
 
Final energy, E             =  -4090.477008821     eV
Final free energy (E-TS)    =  -4090.519276483     eV
(energies not corrected for finite basis set)
 
NB est. 0K energy (E-0.5TS)      =  -4090.498142652     eV
 

WARNING - doing cell minimisation without finite basis correction:
        => now searching for a stationary and not minimum energy
 
+---------------- MEMORY AND SCRATCH DISK ESTIMATES PER PROCESS --------------+
|                                                     Memory          Disk    |
| Model and support data                               49.6 MB         0.0 MB |
| Electronic energy minimisation requirements           7.0 MB         0.0 MB |
| Geometry minimisation requirements                    9.5 MB         0.0 MB |
|                                               ----------------------------- |
| Approx. total storage required per process           66.2 MB         0.0 MB |
|                                                                             |
| Requirements will fluctuate during execution and may exceed these estimates |
+-----------------------------------------------------------------------------+
 

 ******************************** Symmetrised Forces ********************************
 *                                                                                  *
 *                           Cartesian components (eV/A)                            *
 * -------------------------------------------------------------------------------- *
 *                         x                    y                    z              *
 *                                                                                  *
 * Sn              1     -0.10196             -0.86286             -8.95831         *
 * Sn              2      0.10196              0.86286              8.95831         *
 *                                                                                  *
 ************************************************************************************

 *********** Symmetrised Stress Tensor ***********
 *                                               *
 *          Cartesian components (GPa)           *
 * --------------------------------------------- *
 *             x             y             z     *
 *                                               *
 *  x    -55.135776      3.679104     -0.577656  *
 *  y      3.679104    -34.101074     -4.472765  *
 *  z     -0.577656     -4.472765    -21.246584  *
 *                                               *
 *  Pressure:   36.8278                          *
 *                                               *
 *************************************************
 LBFGS: finished iteration     0 with enthalpy= -4.09051928E+003 eV
  
 +-----------+-----------------+-----------------+------------+-----+ <-- LBFGS
 | Parameter |      value      |    tolerance    |    units   | OK? | <-- LBFGS
 +-----------+-----------------+-----------------+------------+-----+ <-- LBFGS
 |  dE/ion   |   0.000000E+000 |   2.000000E-005 |         eV | No  | <-- LBFGS
 |  |F|max   |   9.000344E+000 |   5.000000E-002 |       eV/A | No  | <-- LBFGS
 |  |dR|max  |   0.000000E+000 |   1.000000E-003 |          A | No  | <-- LBFGS
 |   Smax    |   5.513578E+001 |   1.000000E-001 |        GPa | No  | <-- LBFGS
 +-----------+-----------------+-----------------+------------+-----+ <-- LBFGS
  

================================================================================
 Starting LBFGS iteration          1 ...
================================================================================
  
 +------------+-------------+-------------+-----------------+ <-- min LBFGS
 |    Step    |   lambda    |   F.delta'  |    enthalpy     | <-- min LBFGS
 +------------+-------------+-------------+-----------------+ <-- min LBFGS
 |  previous  |    0.000000 |    0.962367 |    -4090.519276 | <-- min LBFGS
 +------------+-------------+-------------+-----------------+ <-- min LBFGS
  

--------------------------------------------------------------------------------
 LBFGS: starting iteration         1 with trial guess (lambda=  1.000000)
--------------------------------------------------------------------------------
 
+---------------- MEMORY AND SCRATCH DISK ESTIMATES PER PROCESS --------------+
|                                                     Memory          Disk    |
| Model and support data                               49.6 MB         0.0 MB |
| Electronic energy minimisation requirements           7.1 MB         0.0 MB |
| Geometry minimisation requirements                    9.5 MB         0.0 MB |
|                                               ----------------------------- |
| Approx. total storage required per process           66.2 MB         0.0 MB |
|                                                                             |
| Requirements will fluctuate during execution and may exceed these estimates |
+-----------------------------------------------------------------------------+
 

                           -------------------------------
                                      Unit Cell
                           -------------------------------
        Real Lattice(A)              Reciprocal Lattice(1/A)
     2.6826196    -0.0063465     0.0009965        2.341619009  -0.288431388  -0.319352865
     0.3570286     2.8890441     0.0085609        0.005207867   2.174691185  -0.169692998
     1.0995813     0.5852492     7.5339744       -0.000315626  -0.002432962   0.834215234

                       Lattice parameters(A)       Cell Angles
                    a =      2.682627          alpha =   84.455209
                    b =      2.911034          beta  =   81.710224
                    c =      7.636253          gamma =   83.090612

                Current cell volume =            58.390469 A**3

                           -------------------------------
                                     Cell Contents
                           -------------------------------

            xxxxxxxxxxxxxxxxxxxxxxxxxxxxxxxxxxxxxxxxxxxxxxxxxxxxxxxxxxxxxxxxx
            x  Element         Atom        Fractional coordinates of atoms  x
            x                 Number           u          v          w      x
            x---------------------------------------------------------------x
            x  Sn                1         0.986807   0.829041   0.597946   x
            x  Sn                2         0.369406   0.233062   0.840359   x
            xxxxxxxxxxxxxxxxxxxxxxxxxxxxxxxxxxxxxxxxxxxxxxxxxxxxxxxxxxxxxxxxx


------------------------------------------------------------------------ <-- SCF
SCF loop      Energy           Fermi           Energy gain       Timer   <-- SCF
                               energy          per atom          (sec)   <-- SCF
------------------------------------------------------------------------ <-- SCF
Initial  -4.12788567E+003  0.00000000E+000                        19.10  <-- SCF
      1  -4.09740204E+003  5.89591767E+000  -1.52418161E+001      19.45  <-- SCF
      2  -4.09780654E+003  5.89235477E+000   2.02251423E-001      20.04  <-- SCF
      3  -4.09136552E+003  6.71965865E+000  -3.22051440E+000      20.49  <-- SCF
      4  -4.09145473E+003  6.71336548E+000   4.46083051E-002      21.00  <-- SCF
      5  -4.09131822E+003  6.64936570E+000  -6.82571425E-002      21.43  <-- SCF
      6  -4.09131214E+003  6.76989555E+000  -3.03834619E-003      21.98  <-- SCF
      7  -4.09131218E+003  6.84795396E+000   1.74545297E-005      22.45  <-- SCF
      8  -4.09131329E+003  6.90301883E+000   5.57239675E-004      22.78  <-- SCF
      9  -4.09131350E+003  6.90855790E+000   1.06425030E-004      23.15  <-- SCF
     10  -4.09131352E+003  6.90907858E+000   6.93828404E-006      23.48  <-- SCF
     11  -4.09131352E+003  6.90891253E+000   7.31145520E-007      23.75  <-- SCF
------------------------------------------------------------------------ <-- SCF
 
Final energy, E             =  -4091.274930078     eV
Final free energy (E-TS)    =  -4091.313518219     eV
(energies not corrected for finite basis set)
 
NB est. 0K energy (E-0.5TS)      =  -4091.294224148     eV
 

 ******************************** Symmetrised Forces ********************************
 *                                                                                  *
 *                           Cartesian components (eV/A)                            *
 * -------------------------------------------------------------------------------- *
 *                         x                    y                    z              *
 *                                                                                  *
 * Sn              1     -0.12199             -0.69704             -6.80024         *
 * Sn              2      0.12199              0.69704              6.80024         *
 *                                                                                  *
 ************************************************************************************

 *********** Symmetrised Stress Tensor ***********
 *                                               *
 *          Cartesian components (GPa)           *
 * --------------------------------------------- *
 *             x             y             z     *
 *                                               *
 *  x    -18.499420      0.725909     -0.638358  *
 *  y      0.725909     -5.487234     -2.838939  *
 *  z     -0.638358     -2.838939      1.364488  *
 *                                               *
 *  Pressure:    7.5407                          *
 *                                               *
 *************************************************
  
 +------------+-------------+-------------+-----------------+ <-- min LBFGS
 |    Step    |   lambda    |   F.delta'  |    enthalpy     | <-- min LBFGS
 +------------+-------------+-------------+-----------------+ <-- min LBFGS
 |  previous  |    0.000000 |    0.962367 |    -4090.519276 | <-- min LBFGS
 | trial step |    1.000000 |    0.310021 |    -4091.313518 | <-- min LBFGS
 +------------+-------------+-------------+-----------------+ <-- min LBFGS
  

--------------------------------------------------------------------------------
 LBFGS: improving iteration         1 with line minimization (lambda=  1.475240)
--------------------------------------------------------------------------------

                           -------------------------------
                                      Unit Cell
                           -------------------------------
        Real Lattice(A)              Reciprocal Lattice(1/A)
     2.7278195    -0.0093626     0.0014700        2.302574280  -0.282483040  -0.317270466
     0.3598673     2.9191637     0.0126294        0.007479367   2.152212146  -0.171498089
     1.1187975     0.6005150     7.5849450       -0.000458710  -0.003528808   0.828722902

                       Lattice parameters(A)       Cell Angles
                    a =      2.727836          alpha =   84.287772
                    b =      2.941289          beta  =   81.619834
                    c =      7.690495          gamma =   83.168760

                Current cell volume =            60.398802 A**3

                           -------------------------------
                                     Cell Contents
                           -------------------------------

            xxxxxxxxxxxxxxxxxxxxxxxxxxxxxxxxxxxxxxxxxxxxxxxxxxxxxxxxxxxxxxxxx
            x  Element         Atom        Fractional coordinates of atoms  x
            x                 Number           u          v          w      x
            x---------------------------------------------------------------x
            x  Sn                1         0.986989   0.829014   0.597474   x
            x  Sn                2         0.369224   0.233089   0.840831   x
            xxxxxxxxxxxxxxxxxxxxxxxxxxxxxxxxxxxxxxxxxxxxxxxxxxxxxxxxxxxxxxxxx


------------------------------------------------------------------------ <-- SCF
SCF loop      Energy           Fermi           Energy gain       Timer   <-- SCF
                               energy          per atom          (sec)   <-- SCF
------------------------------------------------------------------------ <-- SCF
Initial  -4.09951998E+003  0.00000000E+000                        24.38  <-- SCF
      1  -4.09291527E+003  5.90593747E+000  -3.30235600E+000      24.73  <-- SCF
      2  -4.09302143E+003  5.90425801E+000   5.30802588E-002      25.33  <-- SCF
      3  -4.09140598E+003  6.42682812E+000  -8.07722473E-001      25.79  <-- SCF
      4  -4.09140378E+003  6.42505192E+000  -1.09984008E-003      26.31  <-- SCF
      5  -4.09140261E+003  6.48488794E+000  -5.86459729E-004      26.85  <-- SCF
      6  -4.09140242E+003  6.53734197E+000  -9.67391751E-005      27.31  <-- SCF
      7  -4.09140260E+003  6.55948556E+000   9.17314653E-005      27.63  <-- SCF
      8  -4.09140269E+003  6.56379048E+000   4.56682113E-005      27.98  <-- SCF
      9  -4.09140270E+003  6.56375416E+000   1.98534714E-006      28.27  <-- SCF
     10  -4.09140270E+003  6.56373009E+000   6.24425254E-007      28.53  <-- SCF
     11  -4.09140270E+003  6.56370208E+000   2.70052981E-007      28.77  <-- SCF
------------------------------------------------------------------------ <-- SCF
 
Final energy, E             =  -4091.369741902     eV
Final free energy (E-TS)    =  -4091.402698027     eV
(energies not corrected for finite basis set)
 
NB est. 0K energy (E-0.5TS)      =  -4091.386219964     eV
 

 ******************************** Symmetrised Forces ********************************
 *                                                                                  *
 *                           Cartesian components (eV/A)                            *
 * -------------------------------------------------------------------------------- *
 *                         x                    y                    z              *
 *                                                                                  *
 * Sn              1     -0.12655             -0.61353             -5.97449         *
 * Sn              2      0.12655              0.61353              5.97449         *
 *                                                                                  *
 ************************************************************************************

 *********** Symmetrised Stress Tensor ***********
 *                                               *
 *          Cartesian components (GPa)           *
 * --------------------------------------------- *
 *             x             y             z     *
 *                                               *
 *  x     -0.982155     -0.238215     -0.624130  *
 *  y     -0.238215      7.350661     -1.975768  *
 *  z     -0.624130     -1.975768     11.576980  *
 *                                               *
 *  Pressure:   -5.9818                          *
 *                                               *
 *************************************************
  
 +------------+-------------+-------------+-----------------+ <-- min LBFGS
 |    Step    |   lambda    |   F.delta'  |    enthalpy     | <-- min LBFGS
 +------------+-------------+-------------+-----------------+ <-- min LBFGS
 |  previous  |    0.000000 |    0.962367 |    -4090.519276 | <-- min LBFGS
 | trial step |    1.000000 |    0.310021 |    -4091.313518 | <-- min LBFGS
 |  line step |    1.475240 |   -0.010835 |    -4091.402698 | <-- min LBFGS
 +------------+-------------+-------------+-----------------+ <-- min LBFGS
  
 LBFGS: finished iteration     1 with enthalpy= -4.09140270E+003 eV
  
 +-----------+-----------------+-----------------+------------+-----+ <-- LBFGS
 | Parameter |      value      |    tolerance    |    units   | OK? | <-- LBFGS
 +-----------+-----------------+-----------------+------------+-----+ <-- LBFGS
 |  dE/ion   |   4.417108E-001 |   2.000000E-005 |         eV | No  | <-- LBFGS
 |  |F|max   |   6.007238E+000 |   5.000000E-002 |       eV/A | No  | <-- LBFGS
 |  |dR|max  |   1.117363E-002 |   1.000000E-003 |          A | No  | <-- LBFGS
 |   Smax    |   1.157698E+001 |   1.000000E-001 |        GPa | No  | <-- LBFGS
 +-----------+-----------------+-----------------+------------+-----+ <-- LBFGS
  

================================================================================
 Starting LBFGS iteration          2 ...
================================================================================
  
 +------------+-------------+-------------+-----------------+ <-- min LBFGS
 |    Step    |   lambda    |   F.delta'  |    enthalpy     | <-- min LBFGS
 +------------+-------------+-------------+-----------------+ <-- min LBFGS
 |  previous  |    0.000000 |    0.452506 |    -4091.402698 | <-- min LBFGS
 +------------+-------------+-------------+-----------------+ <-- min LBFGS
  

--------------------------------------------------------------------------------
 LBFGS: starting iteration         2 with trial guess (lambda=  1.000000)
--------------------------------------------------------------------------------

                           -------------------------------
                                      Unit Cell
                           -------------------------------
        Real Lattice(A)              Reciprocal Lattice(1/A)
     2.7379744    -0.0095127     0.0027103        2.294164429  -0.282724065  -0.320087883
     0.3610811     2.9100552     0.0176100        0.007676563   2.159243924  -0.176356059
     1.1264819     0.6113229     7.5338655       -0.000843260  -0.004945407   0.834519607

                       Lattice parameters(A)       Cell Angles
                    a =      2.737992          alpha =   84.061866
                    b =      2.932424          beta  =   81.483073
                    c =      7.642107          gamma =   83.125713

                Current cell volume =            60.015180 A**3

                           -------------------------------
                                     Cell Contents
                           -------------------------------

            xxxxxxxxxxxxxxxxxxxxxxxxxxxxxxxxxxxxxxxxxxxxxxxxxxxxxxxxxxxxxxxxx
            x  Element         Atom        Fractional coordinates of atoms  x
            x                 Number           u          v          w      x
            x---------------------------------------------------------------x
            x  Sn                1         0.987262   0.828950   0.596717   x
            x  Sn                2         0.368951   0.233153   0.841588   x
            xxxxxxxxxxxxxxxxxxxxxxxxxxxxxxxxxxxxxxxxxxxxxxxxxxxxxxxxxxxxxxxxx


------------------------------------------------------------------------ <-- SCF
SCF loop      Energy           Fermi           Energy gain       Timer   <-- SCF
                               energy          per atom          (sec)   <-- SCF
------------------------------------------------------------------------ <-- SCF
Initial  -4.09423649E+003  0.00000000E+000                        29.41  <-- SCF
      1  -4.09196083E+003  7.14261962E+000  -1.13782801E+000      29.78  <-- SCF
      2  -4.09197386E+003  7.14246569E+000   6.51258114E-003      30.38  <-- SCF
      3  -4.09152557E+003  6.73220198E+000  -2.24141553E-001      30.81  <-- SCF
      4  -4.09151186E+003  6.74921228E+000  -6.85862609E-003      31.25  <-- SCF
      5  -4.09151026E+003  6.70789721E+000  -7.96238995E-004      31.81  <-- SCF
      6  -4.09150963E+003  6.67449768E+000  -3.18772762E-004      32.19  <-- SCF
      7  -4.09150964E+003  6.66553917E+000   6.73298735E-006      32.54  <-- SCF
      8  -4.09150966E+003  6.66205369E+000   1.15256457E-005      32.82  <-- SCF
      9  -4.09150967E+003  6.66163577E+000   1.51298006E-006      33.08  <-- SCF
     10  -4.09150967E+003  6.66176022E+000   2.90342975E-007      33.32  <-- SCF
     11  -4.09150967E+003  6.66175369E+000   1.47006365E-007      33.56  <-- SCF
------------------------------------------------------------------------ <-- SCF
 
Final energy, E             =  -4091.479327514     eV
Final free energy (E-TS)    =  -4091.509666855     eV
(energies not corrected for finite basis set)
 
NB est. 0K energy (E-0.5TS)      =  -4091.494497185     eV
 

 ******************************** Symmetrised Forces ********************************
 *                                                                                  *
 *                           Cartesian components (eV/A)                            *
 * -------------------------------------------------------------------------------- *
 *                         x                    y                    z              *
 *                                                                                  *
 * Sn              1     -0.15182             -0.56559             -6.07506         *
 * Sn              2      0.15182              0.56559              6.07506         *
 *                                                                                  *
 ************************************************************************************

 *********** Symmetrised Stress Tensor ***********
 *                                               *
 *          Cartesian components (GPa)           *
 * --------------------------------------------- *
 *             x             y             z     *
 *                                               *
 *  x      0.005022     -0.437760     -0.595087  *
 *  y     -0.437760      5.937219     -1.418601  *
 *  z     -0.595087     -1.418601      8.573359  *
 *                                               *
 *  Pressure:   -4.8385                          *
 *                                               *
 *************************************************
  
 +------------+-------------+-------------+-----------------+ <-- min LBFGS
 |    Step    |   lambda    |   F.delta'  |    enthalpy     | <-- min LBFGS
 +------------+-------------+-------------+-----------------+ <-- min LBFGS
 |  previous  |    0.000000 |    0.452506 |    -4091.402698 | <-- min LBFGS
 | trial step |    1.000000 |    0.408333 |    -4091.509667 | <-- min LBFGS
 +------------+-------------+-------------+-----------------+ <-- min LBFGS
  

--------------------------------------------------------------------------------
 LBFGS: improving iteration         2 with line minimization (lambda=  5.013724)
--------------------------------------------------------------------------------

                           -------------------------------
                                      Unit Cell
                           -------------------------------
        Real Lattice(A)              Reciprocal Lattice(1/A)
     2.7787333    -0.0101153     0.0076883        2.261054292  -0.283615012  -0.331715408
     0.3659529     2.8734962     0.0376009        0.008509745   2.188091064  -0.196811090
     1.1573251     0.6547030     7.3288465       -0.002415623  -0.010928555   0.858680271

                       Lattice parameters(A)       Cell Angles
                    a =      2.778762          alpha =   83.131872
                    b =      2.896949          beta  =   80.922059
                    c =      7.448492          gamma =   82.949310

                Current cell volume =            58.453049 A**3

                           -------------------------------
                                     Cell Contents
                           -------------------------------

            xxxxxxxxxxxxxxxxxxxxxxxxxxxxxxxxxxxxxxxxxxxxxxxxxxxxxxxxxxxxxxxxx
            x  Element         Atom        Fractional coordinates of atoms  x
            x                 Number           u          v          w      x
            x---------------------------------------------------------------x
            x  Sn                1         0.988359   0.828692   0.593680   x
            x  Sn                2         0.367854   0.233411   0.844625   x
            xxxxxxxxxxxxxxxxxxxxxxxxxxxxxxxxxxxxxxxxxxxxxxxxxxxxxxxxxxxxxxxxx


------------------------------------------------------------------------ <-- SCF
SCF loop      Energy           Fermi           Energy gain       Timer   <-- SCF
                               energy          per atom          (sec)   <-- SCF
------------------------------------------------------------------------ <-- SCF
Initial  -4.13153630E+003  0.00000000E+000                        34.19  <-- SCF
      1  -4.10471785E+003  8.11699795E+000  -1.34092254E+001      34.52  <-- SCF
      2  -4.10491924E+003  8.11409821E+000   1.00693488E-001      34.93  <-- SCF
      3  -4.09185456E+003  7.27179252E+000  -6.53233709E+000      35.30  <-- SCF
      4  -4.09225397E+003  7.26695319E+000   1.99703807E-001      35.82  <-- SCF
      5  -4.09179175E+003  7.36985247E+000  -2.31112376E-001      36.19  <-- SCF
      6  -4.09182233E+003  7.24056078E+000   1.52912349E-002      36.74  <-- SCF
      7  -4.09183065E+003  7.18219949E+000   4.16121225E-003      37.22  <-- SCF
      8  -4.09182879E+003  7.09158785E+000  -9.31425409E-004      37.75  <-- SCF
      9  -4.09182900E+003  7.08338499E+000   1.06025099E-004      38.17  <-- SCF
     10  -4.09182907E+003  7.07986343E+000   3.27481751E-005      38.48  <-- SCF
     11  -4.09182907E+003  7.08005188E+000   2.84368622E-006      38.77  <-- SCF
     12  -4.09182907E+003  7.07976044E+000   6.31315422E-007      39.02  <-- SCF
------------------------------------------------------------------------ <-- SCF
 
Final energy, E             =  -4091.809138337     eV
Final free energy (E-TS)    =  -4091.829072784     eV
(energies not corrected for finite basis set)
 
NB est. 0K energy (E-0.5TS)      =  -4091.819105560     eV
 

 ******************************** Symmetrised Forces ********************************
 *                                                                                  *
 *                           Cartesian components (eV/A)                            *
 * -------------------------------------------------------------------------------- *
 *                         x                    y                    z              *
 *                                                                                  *
 * Sn              1     -0.20776             -0.31747             -6.57007         *
 * Sn              2      0.20776              0.31747              6.57007         *
 *                                                                                  *
 ************************************************************************************

 *********** Symmetrised Stress Tensor ***********
 *                                               *
 *          Cartesian components (GPa)           *
 * --------------------------------------------- *
 *             x             y             z     *
 *                                               *
 *  x      5.639787     -0.645576     -0.367809  *
 *  y     -0.645576     -0.156754      0.766590  *
 *  z     -0.367809      0.766590     -2.442607  *
 *                                               *
 *  Pressure:   -1.0135                          *
 *                                               *
 *************************************************
  
 +------------+-------------+-------------+-----------------+ <-- min LBFGS
 |    Step    |   lambda    |   F.delta'  |    enthalpy     | <-- min LBFGS
 +------------+-------------+-------------+-----------------+ <-- min LBFGS
 |  previous  |    0.000000 |    0.452506 |    -4091.402698 | <-- min LBFGS
 | trial step |    1.000000 |    0.408333 |    -4091.509667 | <-- min LBFGS
 |  line step |    5.013724 |    0.234924 |    -4091.829073 | <-- min LBFGS
 +------------+-------------+-------------+-----------------+ <-- min LBFGS
  

--------------------------------------------------------------------------------
 LBFGS: improving iteration         2 with quad minimization (lambda= 10.027447)
--------------------------------------------------------------------------------

                           -------------------------------
                                      Unit Cell
                           -------------------------------
        Real Lattice(A)              Reciprocal Lattice(1/A)
     2.8296471    -0.0108680     0.0139067        2.221096370  -0.284536166  -0.347021980
     0.3720386     2.8278287     0.0625725        0.009652368   2.225613721  -0.224701944
     1.1958527     0.7088910     7.0727481       -0.004452584  -0.019130499   0.891035748

                       Lattice parameters(A)       Cell Angles
                    a =      2.829702          alpha =   81.915140
                    b =      2.852883          beta  =   80.192069
                    c =      7.208076          gamma =   82.720701

                Current cell volume =            56.453323 A**3

                           -------------------------------
                                     Cell Contents
                           -------------------------------

            xxxxxxxxxxxxxxxxxxxxxxxxxxxxxxxxxxxxxxxxxxxxxxxxxxxxxxxxxxxxxxxxx
            x  Element         Atom        Fractional coordinates of atoms  x
            x                 Number           u          v          w      x
            x---------------------------------------------------------------x
            x  Sn                1         0.989729   0.828370   0.589886   x
            x  Sn                2         0.366484   0.233733   0.848419   x
            xxxxxxxxxxxxxxxxxxxxxxxxxxxxxxxxxxxxxxxxxxxxxxxxxxxxxxxxxxxxxxxxx


------------------------------------------------------------------------ <-- SCF
SCF loop      Energy           Fermi           Energy gain       Timer   <-- SCF
                               energy          per atom          (sec)   <-- SCF
------------------------------------------------------------------------ <-- SCF
Initial  -4.15127110E+003  0.00000000E+000                        40.66  <-- SCF
      1  -4.11674568E+003  8.46060675E+000  -1.72627099E+001      41.00  <-- SCF
      2  -4.11706503E+003  8.44495362E+000   1.59673876E-001      41.40  <-- SCF
      3  -4.09234584E+003  7.70468176E+000  -1.23595944E+001      41.77  <-- SCF
      4  -4.09308346E+003  7.69374532E+000   3.68808186E-001      42.27  <-- SCF
      5  -4.09194520E+003  7.77340377E+000  -5.69125984E-001      42.64  <-- SCF
      6  -4.09200000E+003  7.64417399E+000   2.73977570E-002      43.22  <-- SCF
      7  -4.09199956E+003  7.61295199E+000  -2.21987107E-004      43.69  <-- SCF
      8  -4.09199559E+003  7.53755674E+000  -1.98145415E-003      44.19  <-- SCF
      9  -4.09199573E+003  7.53325879E+000   6.63748729E-005      44.68  <-- SCF
     10  -4.09199577E+003  7.53153602E+000   2.38268703E-005      45.00  <-- SCF
     11  -4.09199578E+003  7.53083036E+000   3.23242812E-006      45.29  <-- SCF
     12  -4.09199578E+003  7.53069849E+000   9.40702841E-007      45.55  <-- SCF
------------------------------------------------------------------------ <-- SCF
 
Final energy, E             =  -4091.981751073     eV
Final free energy (E-TS)    =  -4091.995781486     eV
(energies not corrected for finite basis set)
 
NB est. 0K energy (E-0.5TS)      =  -4091.988766280     eV
 

 ******************************** Symmetrised Forces ********************************
 *                                                                                  *
 *                           Cartesian components (eV/A)                            *
 * -------------------------------------------------------------------------------- *
 *                         x                    y                    z              *
 *                                                                                  *
 * Sn              1     -0.25100             -0.00632             -6.96042         *
 * Sn              2      0.25100              0.00632              6.96042         *
 *                                                                                  *
 ************************************************************************************

 *********** Symmetrised Stress Tensor ***********
 *                                               *
 *          Cartesian components (GPa)           *
 * --------------------------------------------- *
 *             x             y             z     *
 *                                               *
 *  x     13.316359     -0.471883     -0.048565  *
 *  y     -0.471883     -9.250182      3.083243  *
 *  z     -0.048565      3.083243    -12.833714  *
 *                                               *
 *  Pressure:    2.9225                          *
 *                                               *
 *************************************************
  
 +------------+-------------+-------------+-----------------+ <-- min LBFGS
 |    Step    |   lambda    |   F.delta'  |    enthalpy     | <-- min LBFGS
 +------------+-------------+-------------+-----------------+ <-- min LBFGS
 |  previous  |    0.000000 |    0.452506 |    -4091.402698 | <-- min LBFGS
 | trial step |    1.000000 |    0.408333 |    -4091.509667 | <-- min LBFGS
 |  line step |    5.013724 |    0.234924 |    -4091.829073 | <-- min LBFGS
 |  quad step |   10.027447 |    0.037183 |    -4091.995781 | <-- min LBFGS
 +------------+-------------+-------------+-----------------+ <-- min LBFGS
  
 LBFGS: finished iteration     2 with enthalpy= -4.09199578E+003 eV
  
 +-----------+-----------------+-----------------+------------+-----+ <-- LBFGS
 | Parameter |      value      |    tolerance    |    units   | OK? | <-- LBFGS
 +-----------+-----------------+-----------------+------------+-----+ <-- LBFGS
 |  dE/ion   |   2.965417E-001 |   2.000000E-005 |         eV | No  | <-- LBFGS
 |  |F|max   |   6.964948E+000 |   5.000000E-002 |       eV/A | No  | <-- LBFGS
 |  |dR|max  |   5.417548E-002 |   1.000000E-003 |          A | No  | <-- LBFGS
 |   Smax    |   1.331636E+001 |   1.000000E-001 |        GPa | No  | <-- LBFGS
 +-----------+-----------------+-----------------+------------+-----+ <-- LBFGS
  

================================================================================
 Starting LBFGS iteration          3 ...
================================================================================
  
 +------------+-------------+-------------+-----------------+ <-- min LBFGS
 |    Step    |   lambda    |   F.delta'  |    enthalpy     | <-- min LBFGS
 +------------+-------------+-------------+-----------------+ <-- min LBFGS
 |  previous  |    0.000000 |    0.732743 |    -4091.995781 | <-- min LBFGS
 +------------+-------------+-------------+-----------------+ <-- min LBFGS
  

--------------------------------------------------------------------------------
 LBFGS: starting iteration         3 with trial guess (lambda=  1.000000)
--------------------------------------------------------------------------------

                           -------------------------------
                                      Unit Cell
                           -------------------------------
        Real Lattice(A)              Reciprocal Lattice(1/A)
     2.8377118    -0.0106323     0.0174954        2.215284305  -0.284159841  -0.352917487
     0.3733902     2.8245080     0.0695732        0.009784376   2.228955421  -0.232424228
     1.2095046     0.7254515     7.0080190       -0.005627546  -0.021418907   0.899759298

                       Lattice parameters(A)       Cell Angles
                    a =      2.837786          alpha =   81.565578
                    b =      2.849931          beta  =   79.929747
                    c =      7.148532          gamma =   82.677674

                Current cell volume =            55.998924 A**3

                           -------------------------------
                                     Cell Contents
                           -------------------------------

            xxxxxxxxxxxxxxxxxxxxxxxxxxxxxxxxxxxxxxxxxxxxxxxxxxxxxxxxxxxxxxxxx
            x  Element         Atom        Fractional coordinates of atoms  x
            x                 Number           u          v          w      x
            x---------------------------------------------------------------x
            x  Sn                1         0.990713   0.828295   0.586929   x
            x  Sn                2         0.365500   0.233808   0.851376   x
            xxxxxxxxxxxxxxxxxxxxxxxxxxxxxxxxxxxxxxxxxxxxxxxxxxxxxxxxxxxxxxxxx


------------------------------------------------------------------------ <-- SCF
SCF loop      Energy           Fermi           Energy gain       Timer   <-- SCF
                               energy          per atom          (sec)   <-- SCF
------------------------------------------------------------------------ <-- SCF
Initial  -4.09514901E+003  0.00000000E+000                        47.20  <-- SCF
      1  -4.09262195E+003  7.79817372E+000  -1.26353062E+000      47.57  <-- SCF
      2  -4.09270346E+003  7.79783117E+000   4.07565688E-002      48.21  <-- SCF
      3  -4.09221294E+003  7.60885618E+000  -2.45259030E-001      48.65  <-- SCF
      4  -4.09220686E+003  7.61070907E+000  -3.04140150E-003      49.09  <-- SCF
      5  -4.09220763E+003  7.59456065E+000   3.86020469E-004      49.75  <-- SCF
      6  -4.09220765E+003  7.58623912E+000   7.75543910E-006      50.16  <-- SCF
      7  -4.09220765E+003  7.58118194E+000   9.59194694E-007      50.50  <-- SCF
------------------------------------------------------------------------ <-- SCF
 
Final energy, E             =  -4092.192833391     eV
Final free energy (E-TS)    =  -4092.207647275     eV
(energies not corrected for finite basis set)
 
NB est. 0K energy (E-0.5TS)      =  -4092.200240333     eV
 

 ******************************** Symmetrised Forces ********************************
 *                                                                                  *
 *                           Cartesian components (eV/A)                            *
 * -------------------------------------------------------------------------------- *
 *                         x                    y                    z              *
 *                                                                                  *
 * Sn              1     -0.21698              0.08215             -6.47603         *
 * Sn              2      0.21698             -0.08215              6.47603         *
 *                                                                                  *
 ************************************************************************************

 *********** Symmetrised Stress Tensor ***********
 *                                               *
 *          Cartesian components (GPa)           *
 * --------------------------------------------- *
 *             x             y             z     *
 *                                               *
 *  x     15.836791     -0.511417      0.371207  *
 *  y     -0.511417     -8.881027      3.724361  *
 *  z      0.371207      3.724361    -12.499696  *
 *                                               *
 *  Pressure:    1.8480                          *
 *                                               *
 *************************************************
  
 +------------+-------------+-------------+-----------------+ <-- min LBFGS
 |    Step    |   lambda    |   F.delta'  |    enthalpy     | <-- min LBFGS
 +------------+-------------+-------------+-----------------+ <-- min LBFGS
 |  previous  |    0.000000 |    0.732743 |    -4091.995781 | <-- min LBFGS
 | trial step |    1.000000 |    0.648404 |    -4092.207647 | <-- min LBFGS
 +------------+-------------+-------------+-----------------+ <-- min LBFGS
  
 geom_check_lambda: WARNING - unit cell strain > 10% and working with fixed basis size
 geom_check_lambda:         - suggest you reconsider your initial cell vectors
 geom_check_lambda:           and/or change to fixed basis quality calculation, 
 geom_check_lambda:           i.e. fixed_npw=.false.

--------------------------------------------------------------------------------
 LBFGS: improving iteration         3 with line minimization (lambda=  3.879913)
--------------------------------------------------------------------------------

                           -------------------------------
                                      Unit Cell
                           -------------------------------
        Real Lattice(A)              Reciprocal Lattice(1/A)
     2.8609375    -0.0099535     0.0278305        2.198817651  -0.282894132  -0.370471691
     0.3772825     2.8149446     0.0897347        0.010275880   2.238852964  -0.255627506
     1.2488209     0.7731446     6.8216048       -0.009105831  -0.028296829   0.925945525

                       Lattice parameters(A)       Cell Angles
                    a =      2.861090          alpha =   80.537843
                    b =      2.841533          beta  =   79.159162
                    c =      6.977936          gamma =   82.551901

                Current cell volume =            54.673279 A**3

                           -------------------------------
                                     Cell Contents
                           -------------------------------

            xxxxxxxxxxxxxxxxxxxxxxxxxxxxxxxxxxxxxxxxxxxxxxxxxxxxxxxxxxxxxxxxx
            x  Element         Atom        Fractional coordinates of atoms  x
            x                 Number           u          v          w      x
            x---------------------------------------------------------------x
            x  Sn                1         0.993549   0.828079   0.578412   x
            x  Sn                2         0.362665   0.234024   0.859893   x
            xxxxxxxxxxxxxxxxxxxxxxxxxxxxxxxxxxxxxxxxxxxxxxxxxxxxxxxxxxxxxxxxx


------------------------------------------------------------------------ <-- SCF
SCF loop      Energy           Fermi           Energy gain       Timer   <-- SCF
                               energy          per atom          (sec)   <-- SCF
------------------------------------------------------------------------ <-- SCF
Initial  -4.11939968E+003  0.00000000E+000                        52.16  <-- SCF
      1  -4.09783874E+003  8.42335313E+000  -1.07804675E+001      52.53  <-- SCF
      2  -4.09843501E+003  8.42086472E+000   2.98131582E-001      53.00  <-- SCF
      3  -4.09269846E+003  7.74660671E+000  -2.86827199E+000      53.38  <-- SCF
      4  -4.09290297E+003  7.74547506E+000   1.02252526E-001      53.95  <-- SCF
      5  -4.09269366E+003  7.78965158E+000  -1.04652343E-001      54.32  <-- SCF
      6  -4.09269189E+003  7.74798125E+000  -8.87367002E-004      54.85  <-- SCF
      7  -4.09269248E+003  7.73263605E+000   2.98077003E-004      55.37  <-- SCF
      8  -4.09269312E+003  7.71344350E+000   3.15469159E-004      55.71  <-- SCF
      9  -4.09269316E+003  7.70980202E+000   2.44321142E-005      56.05  <-- SCF
     10  -4.09269317E+003  7.70799058E+000   4.23019894E-006      56.34  <-- SCF
     11  -4.09269317E+003  7.70799121E+000   6.18861070E-007      56.59  <-- SCF
------------------------------------------------------------------------ <-- SCF
 
Final energy, E             =  -4092.674152545     eV
Final free energy (E-TS)    =  -4092.693174204     eV
(energies not corrected for finite basis set)
 
NB est. 0K energy (E-0.5TS)      =  -4092.683663375     eV
 

 ******************************** Symmetrised Forces ********************************
 *                                                                                  *
 *                           Cartesian components (eV/A)                            *
 * -------------------------------------------------------------------------------- *
 *                         x                    y                    z              *
 *                                                                                  *
 * Sn              1     -0.13556              0.23499             -5.43005         *
 * Sn              2      0.13556             -0.23499              5.43005         *
 *                                                                                  *
 ************************************************************************************

 *********** Symmetrised Stress Tensor ***********
 *                                               *
 *          Cartesian components (GPa)           *
 * --------------------------------------------- *
 *             x             y             z     *
 *                                               *
 *  x     22.086762     -0.484689      1.526361  *
 *  y     -0.484689     -9.037800      5.214908  *
 *  z      1.526361      5.214908    -12.047085  *
 *                                               *
 *  Pressure:   -0.3340                          *
 *                                               *
 *************************************************
  
 +------------+-------------+-------------+-----------------+ <-- min LBFGS
 |    Step    |   lambda    |   F.delta'  |    enthalpy     | <-- min LBFGS
 +------------+-------------+-------------+-----------------+ <-- min LBFGS
 |  previous  |    0.000000 |    0.732743 |    -4091.995781 | <-- min LBFGS
 | trial step |    1.000000 |    0.648404 |    -4092.207647 | <-- min LBFGS
 |  line step |    3.879913 |    0.458497 |    -4092.693174 | <-- min LBFGS
 +------------+-------------+-------------+-----------------+ <-- min LBFGS
  
 geom_check_lambda: WARNING - unit cell strain > 10% and working with fixed basis size
 geom_check_lambda:         - suggest you reconsider your initial cell vectors
 geom_check_lambda:           and/or change to fixed basis quality calculation, 
 geom_check_lambda:           i.e. fixed_npw=.false.

--------------------------------------------------------------------------------
 LBFGS: improving iteration         3 with quad minimization (lambda=  7.759826)
--------------------------------------------------------------------------------

                           -------------------------------
                                      Unit Cell
                           -------------------------------
        Real Lattice(A)              Reciprocal Lattice(1/A)
     2.8922280    -0.0090390     0.0417544        2.177271588  -0.280729024  -0.395598779
     0.3825265     2.8020605     0.1168970        0.011218153   2.252884369  -0.289350315
     1.3017891     0.8373982     6.5704614       -0.014035859  -0.038297728   0.963939526

                       Lattice parameters(A)       Cell Angles
                    a =      2.892543          alpha =   79.101484
                    b =      2.830465          beta  =   78.083246
                    c =      6.750323          gamma =   82.378172

                Current cell volume =            52.847611 A**3

                           -------------------------------
                                     Cell Contents
                           -------------------------------

            xxxxxxxxxxxxxxxxxxxxxxxxxxxxxxxxxxxxxxxxxxxxxxxxxxxxxxxxxxxxxxxxx
            x  Element         Atom        Fractional coordinates of atoms  x
            x                 Number           u          v          w      x
            x---------------------------------------------------------------x
            x  Sn                1         0.997368   0.827788   0.566938   x
            x  Sn                2         0.358845   0.234315   0.871367   x
            xxxxxxxxxxxxxxxxxxxxxxxxxxxxxxxxxxxxxxxxxxxxxxxxxxxxxxxxxxxxxxxxx


------------------------------------------------------------------------ <-- SCF
SCF loop      Energy           Fermi           Energy gain       Timer   <-- SCF
                               energy          per atom          (sec)   <-- SCF
------------------------------------------------------------------------ <-- SCF
Initial  -4.14099110E+003  0.00000000E+000                        58.28  <-- SCF
      1  -4.10517263E+003  9.03185093E+000  -1.79092339E+001      58.62  <-- SCF
      2  -4.10617301E+003  9.02554030E+000   5.00187594E-001      59.05  <-- SCF
      3  -4.09336806E+003  7.91661650E+000  -6.40247638E+000      59.42  <-- SCF
      4  -4.09370077E+003  7.91365036E+000   1.66358250E-001      59.98  <-- SCF
      5  -4.09311006E+003  7.98638644E+000  -2.95358100E-001      60.35  <-- SCF
      6  -4.09311438E+003  7.93292409E+000   2.16116313E-003      60.94  <-- SCF
      7  -4.09311546E+003  7.92100045E+000   5.42593329E-004      61.41  <-- SCF
      8  -4.09311648E+003  7.90379808E+000   5.09965975E-004      61.75  <-- SCF
      9  -4.09311657E+003  7.89790210E+000   4.25512652E-005      62.10  <-- SCF
     10  -4.09311658E+003  7.89633160E+000   3.35036957E-006      62.39  <-- SCF
     11  -4.09311658E+003  7.89644068E+000   6.02859159E-007      62.65  <-- SCF
------------------------------------------------------------------------ <-- SCF
 
Final energy, E             =  -4093.086244407     eV
Final free energy (E-TS)    =  -4093.116577139     eV
(energies not corrected for finite basis set)
 
NB est. 0K energy (E-0.5TS)      =  -4093.101410773     eV
 

 ******************************** Symmetrised Forces ********************************
 *                                                                                  *
 *                           Cartesian components (eV/A)                            *
 * -------------------------------------------------------------------------------- *
 *                         x                    y                    z              *
 *                                                                                  *
 * Sn              1     -0.03613              0.36172             -4.34489         *
 * Sn              2      0.03613             -0.36172              4.34489         *
 *                                                                                  *
 ************************************************************************************

 *********** Symmetrised Stress Tensor ***********
 *                                               *
 *          Cartesian components (GPa)           *
 * --------------------------------------------- *
 *             x             y             z     *
 *                                               *
 *  x     31.009057      0.276964      2.929052  *
 *  y      0.276964     -9.443539      6.553595  *
 *  z      2.929052      6.553595    -11.071765  *
 *                                               *
 *  Pressure:   -3.4979                          *
 *                                               *
 *************************************************
  
 +------------+-------------+-------------+-----------------+ <-- min LBFGS
 |    Step    |   lambda    |   F.delta'  |    enthalpy     | <-- min LBFGS
 +------------+-------------+-------------+-----------------+ <-- min LBFGS
 |  previous  |    0.000000 |    0.732743 |    -4091.995781 | <-- min LBFGS
 | trial step |    1.000000 |    0.648404 |    -4092.207647 | <-- min LBFGS
 |  line step |    3.879913 |    0.458497 |    -4092.693174 | <-- min LBFGS
 |  quad step |    7.759826 |    0.265195 |    -4093.116577 | <-- min LBFGS
 +------------+-------------+-------------+-----------------+ <-- min LBFGS
  
 LBFGS: finished iteration     3 with enthalpy= -4.09311658E+003 eV
  
 +-----------+-----------------+-----------------+------------+-----+ <-- LBFGS
 | Parameter |      value      |    tolerance    |    units   | OK? | <-- LBFGS
 +-----------+-----------------+-----------------+------------+-----+ <-- LBFGS
 |  dE/ion   |   5.603978E-001 |   2.000000E-005 |         eV | No  | <-- LBFGS
 |  |F|max   |   4.360068E+000 |   5.000000E-002 |       eV/A | No  | <-- LBFGS
 |  |dR|max  |   1.521854E-001 |   1.000000E-003 |          A | No  | <-- LBFGS
 |   Smax    |   3.100906E+001 |   1.000000E-001 |        GPa | No  | <-- LBFGS
 +-----------+-----------------+-----------------+------------+-----+ <-- LBFGS
  
 LBFGS: WARNING - Geometry optimization failed to converge after          3 steps

================================================================================
 LBFGS: Final Configuration:
================================================================================

                           -------------------------------
                                      Unit Cell
                           -------------------------------
        Real Lattice(A)              Reciprocal Lattice(1/A)
     2.8922280    -0.0090390     0.0417544        2.177271588  -0.280729024  -0.395598779
     0.3825265     2.8020605     0.1168970        0.011218153   2.252884369  -0.289350315
     1.3017891     0.8373982     6.5704614       -0.014035859  -0.038297728   0.963939526

                       Lattice parameters(A)       Cell Angles
                    a =      2.892543          alpha =   79.101484
                    b =      2.830465          beta  =   78.083246
                    c =      6.750323          gamma =   82.378172

                Current cell volume =            52.847611 A**3

                           -------------------------------
                                     Cell Contents
                           -------------------------------

            xxxxxxxxxxxxxxxxxxxxxxxxxxxxxxxxxxxxxxxxxxxxxxxxxxxxxxxxxxxxxxxxx
            x  Element         Atom        Fractional coordinates of atoms  x
            x                 Number           u          v          w      x
            x---------------------------------------------------------------x
            x  Sn                1         0.997368   0.827788   0.566938   x
            x  Sn                2         0.358845   0.234315   0.871367   x
            xxxxxxxxxxxxxxxxxxxxxxxxxxxxxxxxxxxxxxxxxxxxxxxxxxxxxxxxxxxxxxxxx


 LBFGS: Final Enthalpy     = -4.09311658E+003 eV
 LBFGS: Final <frequency>  =    1125.97323 cm-1
 LBFGS: Final bulk modulus =     202.25607 GPa
  
  **********************************************************
  *** There were at least     4 warnings during this run ***
  *** => please check the whole of this file carefully!  ***
  **********************************************************

 ******************************** Symmetrised Forces ********************************
 *                                                                                  *
 *                           Cartesian components (eV/A)                            *
 * -------------------------------------------------------------------------------- *
 *                         x                    y                    z              *
 *                                                                                  *
 * Sn              1     -0.03613              0.36172             -4.34489         *
 * Sn              2      0.03613             -0.36172              4.34489         *
 *                                                                                  *
 ************************************************************************************

 *********** Symmetrised Stress Tensor ***********
 *                                               *
 *          Cartesian components (GPa)           *
 * --------------------------------------------- *
 *             x             y             z     *
 *                                               *
 *  x     31.009057      0.276964      2.929052  *
 *  y      0.276964     -9.443539      6.553595  *
 *  z      2.929052      6.553595    -11.071765  *
 *                                               *
 *  Pressure:   -3.4979                          *
 *                                               *
 *************************************************

 Pseudo atomic calculation performed for Sn 4d10 5s2 5p2

 Converged in 27 iterations to a total energy of -2044.0517 eV

Charge spilling parameter for spin component 1 = 0.37%

            Orbital Populations       
     Ion    Atom   Orbital             Charge
  -------------------------------------------
     Sn     1      Dzz                  1.999
     Sn     1      Dzy                  1.999
     Sn     1      Dzx                  1.999
     Sn     1      Dxx-yy               1.998
     Sn     1      Dxy                  1.999
     Sn     1      S                    1.224
     Sn     1      Px                   0.755
     Sn     1      Py                   0.750
     Sn     1      Pz                   0.837
     Sn     1      S                    0.441
     Sn     2      Dzz                  1.999
     Sn     2      Dzy                  1.999
     Sn     2      Dzx                  1.999
     Sn     2      Dxx-yy               1.998
     Sn     2      Dxy                  1.999
     Sn     2      S                    1.225
     Sn     2      Px                   0.754
     Sn     2      Py                   0.750
     Sn     2      Pz                   0.837
     Sn     2      S                    0.441
  -------------------------------------------
                           Total:      28.000
  -------------------------------------------

     Atomic Populations (Mulliken)
     -----------------------------
Species          Ion     s      p      d      f     Total  Charge (e)
=====================================================================
  Sn              1     1.67   2.34   9.99   0.00  14.00     0.00
  Sn              2     1.67   2.34   9.99   0.00  14.00     0.00
=====================================================================

                 Bond                   Population      Length (A)
======================================================================
              Sn 1 -- Sn 2                  -4.92        2.69335
======================================================================

Initialisation time =     12.87 s
Calculation time    =     50.70 s
Finalisation time   =      0.01 s
Total time          =     63.59 s
Peak Memory Use     = 328972 kB
 +-------------------------------------------------+
 |                                                 |
 |      CCC   AA    SSS  TTTTT  EEEEE  PPPP        |
 |     C     A  A  S       T    E      P   P       |
 |     C     AAAA   SS     T    EEE    PPPP        |
 |     C     A  A     S    T    E      P           |
 |      CCC  A  A  SSS     T    EEEEE  P           |
 |                                                 |
 +-------------------------------------------------+
 |                                                 |
 | Welcome to Academic Release CASTEP version 18.1 |          
 | Ab Initio Total Energy Program                  |
 |                                                 |
 | Authors:                                        |
 | M. Segall, M. Probert, C. Pickard, P. Hasnip,   |
 | S. Clark, K. Refson, J. R. Yates, M. Payne      |
 |                                                 |
 | Contributors:                                   |
 | P. Lindan, P. Haynes, J. White, V. Milman,      |
 | N. Govind, M. Gibson, P. Tulip, V. Cocula,      |
 | B. Montanari, D. Quigley, M. Glover,            |
 | L. Bernasconi, A. Perlov, M. Plummer,           |
 | E. McNellis, J. Meyer, J. Gale, D. Jochym       |
 | J. Aarons, B. Walker, R. Gillen, D. Jones       |
 | T. Green, I. J. Bush, C. J. Armstrong,          |
 | E. J. Higgins, E. L. Brown, M. S. McFly,        |
 | J. Wilkins, B-C. Shih, P. J. P. Byrne           |
 |                                                 |
 | Copyright (c) 2000 - 2017                       |
 |                                                 |
 |     Distributed under the terms of an           |
 |     Agreement between the United Kingdom        |
 |     Car-Parrinello (UKCP) Consortium,           |
 |     Daresbury Laboratory and Accelrys, Inc.     |
 |                                                 |
 | Please cite                                     |
 |                                                 |
 |     "First principles methods using CASTEP"     |
 |                                                 |
 |         Zeitschrift fuer Kristallographie       |
 |           220(5-6) pp. 567-570 (2005)           |
 |                                                 |
 | S. J. Clark, M. D. Segall, C. J. Pickard,       |
 | P. J. Hasnip, M. J. Probert, K. Refson,         |
 | M. C. Payne                                     |
 |                                                 |
 |       in all publications arising from          |
 |              your use of CASTEP                 |
 |                                                 |
 +-------------------------------------------------+


 Compiled for linux_x86_64_gfortran4.8 on Thu, 19 Jul 2018 15:33:51 +0100
 from code version 70483bd0ad64+  Sun, 10 Dec 2017 12:18:29 +0000
 Compiler: GNU Fortran 4.8.5; Optimisation: fast
 MATHLIBS: Intel MKL(2018.0.0) (LAPACK version 3.7.0)
 FFT Lib : mkl
 Fundamental constants values: CODATA 2014

 Run started: Sun, 11 Nov 2018 01:16:59 +0000

 Atomic calculation performed for Sn:
 1s2 2s2 2p6 3s2 3p6 3d10 4s2 4p6 4d10 5s2 5p2

 Converged in 79 iterations to an ae energy of -168090.064 eV


 Pseudo atomic calculation performed for Sn 4d10 5s2 5p2

 Converged in 27 iterations to a total energy of -2044.0517 eV

 Calculation not parallelised.

 ************************************ Title ************************************
 

 ***************************** General Parameters ******************************
  
 output verbosity                               : normal  (1)
 write checkpoint data to                       : ./Sn-18595-4976-1.check
 type of calculation                            : geometry optimization
 stress calculation                             : on
 density difference calculation                 : off
 electron localisation func (ELF) calculation   : off
 Hirshfeld analysis                             : off
 unlimited duration calculation
 timing information                             : on
 memory usage estimate                          : on
 write extra output files                       : on
 write final potential to formatted file        : off
 write final density to formatted file          : off
 write structure in CELL formatted file         : on
 write BibTeX reference list                    : off
 write OTFG pseudopotential files               : off
 write electrostatic potential file             : off
 write bands file                               : off
 checkpoint writing                             : off
  
 output         length unit                     : A
 output           mass unit                     : amu
 output           time unit                     : ps
 output         charge unit                     : e
 output           spin unit                     : hbar/2
 output         energy unit                     : eV
 output          force unit                     : eV/A
 output       velocity unit                     : A/ps
 output       pressure unit                     : GPa
 output     inv_length unit                     : 1/A
 output      frequency unit                     : cm-1
 output force constant unit                     : eV/A**2
 output         volume unit                     : A**3
 output   IR intensity unit                     : (D/A)**2/amu
 output         dipole unit                     : D
 output         efield unit                     : eV/A/e
 output        entropy unit                     : J/mol/K
  
 wavefunctions paging                           : none
 random number generator seed                   : randomised (11659984)
 data distribution                              : optimal for this architecture
 optimization strategy                          : maximize speed(+++)

 *********************** Exchange-Correlation Parameters ***********************
  
 using functional                               : Perdew Burke Ernzerhof
 relativistic treatment                         : Koelling-Harmon
 DFT+D: Semi-empirical dispersion correction    : off

[...]
 * Sn              1      0.01261             -0.19545             -1.59365         *
 * Sn              2     -0.01261              0.19545              1.59365         *
 *                                                                                  *
 ************************************************************************************

 *********** Symmetrised Stress Tensor ***********
 *                                               *
 *          Cartesian components (GPa)           *
 * --------------------------------------------- *
 *             x             y             z     *
 *                                               *
 *  x      0.177603     -0.657755      0.818220  *
 *  y     -0.657755      0.189191     -1.234808  *
 *  z      0.818220     -1.234808     -5.994839  *
 *                                               *
 *  Pressure:    1.8760                          *
 *                                               *
 *************************************************
  
 +------------+-------------+-------------+-----------------+ <-- min LBFGS
 |    Step    |   lambda    |   F.delta'  |    enthalpy     | <-- min LBFGS
 +------------+-------------+-------------+-----------------+ <-- min LBFGS
 |  previous  |    0.000000 |    0.283466 |    -4095.751560 | <-- min LBFGS
 | trial step |    1.000000 |    0.192357 |    -4095.882496 | <-- min LBFGS
 |  line step |    3.111284 |    0.013221 |    -4096.001875 | <-- min LBFGS
 +------------+-------------+-------------+-----------------+ <-- min LBFGS
  
 LBFGS: finished iteration     2 with enthalpy= -4.09600188E+003 eV
  
 +-----------+-----------------+-----------------+------------+-----+ <-- LBFGS
 | Parameter |      value      |    tolerance    |    units   | OK? | <-- LBFGS
 +-----------+-----------------+-----------------+------------+-----+ <-- LBFGS
 |  dE/ion   |   1.251577E-001 |   2.000000E-005 |         eV | No  | <-- LBFGS
 |  |F|max   |   1.605644E+000 |   5.000000E-002 |       eV/A | No  | <-- LBFGS
 |  |dR|max  |   2.059771E-002 |   1.000000E-003 |          A | No  | <-- LBFGS
 |   Smax    |   5.994839E+000 |   1.000000E-001 |        GPa | No  | <-- LBFGS
 +-----------+-----------------+-----------------+------------+-----+ <-- LBFGS
  

================================================================================
 Starting LBFGS iteration          3 ...
================================================================================
  
 +------------+-------------+-------------+-----------------+ <-- min LBFGS
 |    Step    |   lambda    |   F.delta'  |    enthalpy     | <-- min LBFGS
 +------------+-------------+-------------+-----------------+ <-- min LBFGS
 |  previous  |    0.000000 |    0.306762 |    -4096.001875 | <-- min LBFGS
 +------------+-------------+-------------+-----------------+ <-- min LBFGS
  

--------------------------------------------------------------------------------
 LBFGS: starting iteration         3 with trial guess (lambda=  1.000000)
--------------------------------------------------------------------------------

                           -------------------------------
                                      Unit Cell
                           -------------------------------
        Real Lattice(A)              Reciprocal Lattice(1/A)
     2.8763351    -0.0662838     0.0412439        2.186026317  -0.249819843  -0.512023719
     0.3269156     2.8972471    -0.0178582        0.053571084   2.161008200  -0.263032528
     1.2953294     0.6050844     5.2350350       -0.017039707   0.009339991   1.203355055

                       Lattice parameters(A)       Cell Angles
                    a =      2.877394          alpha =   82.435067
                    b =      2.915688          beta  =   75.530509
                    c =      5.426748          gamma =   84.887964

                Current cell volume =            43.625349 A**3

                           -------------------------------
                                     Cell Contents
                           -------------------------------

            xxxxxxxxxxxxxxxxxxxxxxxxxxxxxxxxxxxxxxxxxxxxxxxxxxxxxxxxxxxxxxxxx
            x  Element         Atom        Fractional coordinates of atoms  x
            x                 Number           u          v          w      x
            x---------------------------------------------------------------x
            x  Sn                1         1.032818   0.852592   0.486486   x
            x  Sn                2         0.323395   0.209511   0.951819   x
            xxxxxxxxxxxxxxxxxxxxxxxxxxxxxxxxxxxxxxxxxxxxxxxxxxxxxxxxxxxxxxxxx


------------------------------------------------------------------------ <-- SCF
SCF loop      Energy           Fermi           Energy gain       Timer   <-- SCF
                               energy          per atom          (sec)   <-- SCF
------------------------------------------------------------------------ <-- SCF
Initial  -4.09337633E+003  0.00000000E+000                        43.07  <-- SCF
      1  -4.12081634E+003  9.70892929E+000   1.37200054E+001      43.52  <-- SCF
      2  -4.12096605E+003  9.69852649E+000   7.48519752E-002      43.96  <-- SCF
      3  -4.09679965E+003  9.85870075E+000  -1.20831977E+001      44.44  <-- SCF
      4  -4.09704247E+003  9.84281576E+000   1.21410562E-001      44.88  <-- SCF
      5  -4.09612195E+003  9.89267957E+000  -4.60260832E-001      45.32  <-- SCF
      6  -4.09613098E+003  9.89540863E+000   4.51694306E-003      45.89  <-- SCF
      7  -4.09613120E+003  9.89682646E+000   1.06188585E-004      46.38  <-- SCF
      8  -4.09613119E+003  9.89702283E+000  -3.28507770E-006      46.73  <-- SCF
      9  -4.09613119E+003  9.89706483E+000   1.39398758E-006      47.03  <-- SCF
------------------------------------------------------------------------ <-- SCF
 
Final energy, E             =  -4096.103337000     eV
Final free energy (E-TS)    =  -4096.131191771     eV
(energies not corrected for finite basis set)
 
NB est. 0K energy (E-0.5TS)      =  -4096.117264385     eV
 

 ******************************** Symmetrised Forces ********************************
 *                                                                                  *
 *                           Cartesian components (eV/A)                            *
 * -------------------------------------------------------------------------------- *
 *                         x                    y                    z              *
 *                                                                                  *
 * Sn              1      0.00291             -0.20373             -0.83805         *
 * Sn              2     -0.00291              0.20373              0.83805         *
 *                                                                                  *
 ************************************************************************************

 *********** Symmetrised Stress Tensor ***********
 *                                               *
 *          Cartesian components (GPa)           *
 * --------------------------------------------- *
 *             x             y             z     *
 *                                               *
 *  x     -3.797640     -3.456976      1.576083  *
 *  y     -3.456976     -3.390513     -0.601853  *
 *  z      1.576083     -0.601853     -8.031801  *
 *                                               *
 *  Pressure:    5.0733                          *
 *                                               *
 *************************************************
  
 +------------+-------------+-------------+-----------------+ <-- min LBFGS
 |    Step    |   lambda    |   F.delta'  |    enthalpy     | <-- min LBFGS
 +------------+-------------+-------------+-----------------+ <-- min LBFGS
 |  previous  |    0.000000 |    0.306762 |    -4096.001875 | <-- min LBFGS
 | trial step |    1.000000 |    0.131415 |    -4096.131192 | <-- min LBFGS
 +------------+-------------+-------------+-----------------+ <-- min LBFGS
  

--------------------------------------------------------------------------------
 LBFGS: improving iteration         3 with line minimization (lambda=  1.749460)
--------------------------------------------------------------------------------

                           -------------------------------
                                      Unit Cell
                           -------------------------------
        Real Lattice(A)              Reciprocal Lattice(1/A)
     2.8541822    -0.0675184     0.0371577        2.202089557  -0.250909092  -0.509193710
     0.3227923     2.8811324    -0.0237330        0.054759201   2.172539457  -0.258526976
     1.2770767     0.5904059     5.2319950       -0.015390879   0.011636894   1.203359348

                       Lattice parameters(A)       Cell Angles
                    a =      2.855222          alpha =   82.725027
                    b =      2.899255          beta  =   75.781497
                    c =      5.417866          gamma =   84.969291

                Current cell volume =            43.050574 A**3

                           -------------------------------
                                     Cell Contents
                           -------------------------------

            xxxxxxxxxxxxxxxxxxxxxxxxxxxxxxxxxxxxxxxxxxxxxxxxxxxxxxxxxxxxxxxxx
            x  Element         Atom        Fractional coordinates of atoms  x
            x                 Number           u          v          w      x
            x---------------------------------------------------------------x
            x  Sn                1         1.036683   0.854254   0.478289   x
            x  Sn                2         0.319530   0.207849   0.960016   x
            xxxxxxxxxxxxxxxxxxxxxxxxxxxxxxxxxxxxxxxxxxxxxxxxxxxxxxxxxxxxxxxxx


------------------------------------------------------------------------ <-- SCF
SCF loop      Energy           Fermi           Energy gain       Timer   <-- SCF
                               energy          per atom          (sec)   <-- SCF
------------------------------------------------------------------------ <-- SCF
Initial  -4.09478200E+003  0.00000000E+000                        47.59  <-- SCF
      1  -4.11039295E+003  9.87756464E+000   7.80547539E+000      48.03  <-- SCF
      2  -4.11046617E+003  9.87279340E+000   3.66099263E-002      48.46  <-- SCF
      3  -4.09668371E+003  9.99810855E+000  -6.89123214E+000      48.94  <-- SCF
      4  -4.09681291E+003  9.99240929E+000   6.45989084E-002      49.38  <-- SCF
      5  -4.09615169E+003  1.00264404E+001  -3.30606343E-001      49.83  <-- SCF
      6  -4.09615781E+003  1.00278123E+001   3.05927820E-003      50.39  <-- SCF
      7  -4.09615785E+003  1.00284733E+001   1.98868836E-005      50.84  <-- SCF
      8  -4.09615785E+003  1.00284226E+001  -2.09351250E-006      51.17  <-- SCF
      9  -4.09615785E+003  1.00284908E+001   1.00509061E-006      51.47  <-- SCF
------------------------------------------------------------------------ <-- SCF
 
Final energy, E             =  -4096.138720229     eV
Final free energy (E-TS)    =  -4096.157849167     eV
(energies not corrected for finite basis set)
 
NB est. 0K energy (E-0.5TS)      =  -4096.148284698     eV
 

 ******************************** Symmetrised Forces ********************************
 *                                                                                  *
 *                           Cartesian components (eV/A)                            *
 * -------------------------------------------------------------------------------- *
 *                         x                    y                    z              *
 *                                                                                  *
 * Sn              1     -0.03143             -0.21920             -0.17614         *
 * Sn              2      0.03143              0.21920              0.17614         *
 *                                                                                  *
 ************************************************************************************

 *********** Symmetrised Stress Tensor ***********
 *                                               *
 *          Cartesian components (GPa)           *
 * --------------------------------------------- *
 *             x             y             z     *
 *                                               *
 *  x     -7.048877     -4.347568      1.899469  *
 *  y     -4.347568     -6.659756      0.124202  *
 *  z      1.899469      0.124202     -9.571208  *
 *                                               *
 *  Pressure:    7.7599                          *
 *                                               *
 *************************************************
  
 +------------+-------------+-------------+-----------------+ <-- min LBFGS
 |    Step    |   lambda    |   F.delta'  |    enthalpy     | <-- min LBFGS
 +------------+-------------+-------------+-----------------+ <-- min LBFGS
 |  previous  |    0.000000 |    0.306762 |    -4096.001875 | <-- min LBFGS
 | trial step |    1.000000 |    0.131415 |    -4096.131192 | <-- min LBFGS
 |  line step |    1.749460 |   -0.020556 |    -4096.157849 | <-- min LBFGS
 +------------+-------------+-------------+-----------------+ <-- min LBFGS
  
 LBFGS: finished iteration     3 with enthalpy= -4.09615785E+003 eV
  
 +-----------+-----------------+-----------------+------------+-----+ <-- LBFGS
 | Parameter |      value      |    tolerance    |    units   | OK? | <-- LBFGS
 +-----------+-----------------+-----------------+------------+-----+ <-- LBFGS
 |  dE/ion   |   7.798703E-002 |   2.000000E-005 |         eV | No  | <-- LBFGS
 |  |F|max   |   2.829482E-001 |   5.000000E-002 |       eV/A | No  | <-- LBFGS
 |  |dR|max  |   9.989927E-002 |   1.000000E-003 |          A | No  | <-- LBFGS
 |   Smax    |   9.571208E+000 |   1.000000E-001 |        GPa | No  | <-- LBFGS
 +-----------+-----------------+-----------------+------------+-----+ <-- LBFGS
  
 LBFGS: WARNING - Geometry optimization failed to converge after          3 steps

================================================================================
 LBFGS: Final Configuration:
================================================================================

                           -------------------------------
                                      Unit Cell
                           -------------------------------
        Real Lattice(A)              Reciprocal Lattice(1/A)
     2.8541822    -0.0675184     0.0371577        2.202089557  -0.250909092  -0.509193710
     0.3227923     2.8811324    -0.0237330        0.054759201   2.172539457  -0.258526976
     1.2770767     0.5904059     5.2319950       -0.015390879   0.011636894   1.203359348

                       Lattice parameters(A)       Cell Angles
                    a =      2.855222          alpha =   82.725027
                    b =      2.899255          beta  =   75.781497
                    c =      5.417866          gamma =   84.969291

                Current cell volume =            43.050574 A**3

                           -------------------------------
                                     Cell Contents
                           -------------------------------

            xxxxxxxxxxxxxxxxxxxxxxxxxxxxxxxxxxxxxxxxxxxxxxxxxxxxxxxxxxxxxxxxx
            x  Element         Atom        Fractional coordinates of atoms  x
            x                 Number           u          v          w      x
            x---------------------------------------------------------------x
            x  Sn                1         1.036683   0.854254   0.478289   x
            x  Sn                2         0.319530   0.207849   0.960016   x
            xxxxxxxxxxxxxxxxxxxxxxxxxxxxxxxxxxxxxxxxxxxxxxxxxxxxxxxxxxxxxxxxx


 LBFGS: Final Enthalpy     = -4.09615785E+003 eV
 LBFGS: Final <frequency>  =     894.34985 cm-1
 LBFGS: Final bulk modulus =     492.65101 GPa
  
  **********************************************************
  *** There were at least     2 warnings during this run ***
  *** => please check the whole of this file carefully!  ***
  **********************************************************

 ******************************** Symmetrised Forces ********************************
 *                                                                                  *
 *                           Cartesian components (eV/A)                            *
 * -------------------------------------------------------------------------------- *
 *                         x                    y                    z              *
 *                                                                                  *
 * Sn              1     -0.03143             -0.21920             -0.17614         *
 * Sn              2      0.03143              0.21920              0.17614         *
 *                                                                                  *
 ************************************************************************************

 *********** Symmetrised Stress Tensor ***********
 *                                               *
 *          Cartesian components (GPa)           *
 * --------------------------------------------- *
 *             x             y             z     *
 *                                               *
 *  x     -7.048877     -4.347568      1.899469  *
 *  y     -4.347568     -6.659756      0.124202  *
 *  z      1.899469      0.124202     -9.571208  *
 *                                               *
 *  Pressure:    7.7599                          *
 *                                               *
 *************************************************

 Pseudo atomic calculation performed for Sn 4d10 5s2 5p2

 Converged in 27 iterations to a total energy of -2044.0517 eV

Charge spilling parameter for spin component 1 = 0.23%

            Orbital Populations       
     Ion    Atom   Orbital             Charge
  -------------------------------------------
     Sn     1      Dzz                  1.998
     Sn     1      Dzy                  1.999
     Sn     1      Dzx                  1.999
     Sn     1      Dxx-yy               1.998
     Sn     1      Dxy                  1.999
     Sn     1      S                    1.244
     Sn     1      Px                   0.782
     Sn     1      Py                   0.821
     Sn     1      Pz                   0.791
     Sn     1      S                    0.368
     Sn     2      Dzz                  1.998
     Sn     2      Dzy                  1.999
     Sn     2      Dzx                  1.999
     Sn     2      Dxx-yy               1.998
     Sn     2      Dxy                  1.999
     Sn     2      S                    1.244
     Sn     2      Px                   0.782
     Sn     2      Py                   0.821
     Sn     2      Pz                   0.791
     Sn     2      S                    0.368
  -------------------------------------------
                           Total:      28.000
  -------------------------------------------

     Atomic Populations (Mulliken)
     -----------------------------
Species          Ion     s      p      d      f     Total  Charge (e)
=====================================================================
  Sn              1     1.61   2.39   9.99   0.00  14.00     0.00
  Sn              2     1.61   2.39   9.99   0.00  14.00     0.00
=====================================================================

                 Bond                   Population      Length (A)
======================================================================
======================================================================

Initialisation time =     12.89 s
Calculation time    =     39.47 s
Finalisation time   =      0.01 s
Total time          =     52.37 s
Peak Memory Use     = 328972 kB
