 +-------------------------------------------------+
 |                                                 |
 |      CCC   AA    SSS  TTTTT  EEEEE  PPPP        |
 |     C     A  A  S       T    E      P   P       |
 |     C     AAAA   SS     T    EEE    PPPP        |
 |     C     A  A     S    T    E      P           |
 |      CCC  A  A  SSS     T    EEEEE  P           |
 |                                                 |
 +-------------------------------------------------+
 |                                                 |
 | Welcome to Academic Release CASTEP version 18.1 |          
 | Ab Initio Total Energy Program                  |
 |                                                 |
 | Authors:                                        |
 | M. Segall, M. Probert, C. Pickard, P. Hasnip,   |
 | S. Clark, K. Refson, J. R. Yates, M. Payne      |
 |                                                 |
 | Contributors:                                   |
 | P. Lindan, P. Haynes, J. White, V. Milman,      |
 | N. Govind, M. Gibson, P. Tulip, V. Cocula,      |
 | B. Montanari, D. Quigley, M. Glover,            |
 | L. Bernasconi, A. Perlov, M. Plummer,           |
 | E. McNellis, J. Meyer, J. Gale, D. Jochym       |
 | J. Aarons, B. Walker, R. Gillen, D. Jones       |
 | T. Green, I. J. Bush, C. J. Armstrong,          |
 | E. J. Higgins, E. L. Brown, M. S. McFly,        |
 | J. Wilkins, B-C. Shih, P. J. P. Byrne           |
 |                                                 |
 | Copyright (c) 2000 - 2017                       |
 |                                                 |
 |     Distributed under the terms of an           |
 |     Agreement between the United Kingdom        |
 |     Car-Parrinello (UKCP) Consortium,           |
 |     Daresbury Laboratory and Accelrys, Inc.     |
 |                                                 |
 | Please cite                                     |
 |                                                 |
 |     "First principles methods using CASTEP"     |
 |                                                 |
 |         Zeitschrift fuer Kristallographie       |
 |           220(5-6) pp. 567-570 (2005)           |
 |                                                 |
 | S. J. Clark, M. D. Segall, C. J. Pickard,       |
 | P. J. Hasnip, M. J. Probert, K. Refson,         |
 | M. C. Payne                                     |
 |                                                 |
 |       in all publications arising from          |
 |              your use of CASTEP                 |
 |                                                 |
 +-------------------------------------------------+


 Compiled for linux_x86_64_gfortran4.8 on Thu, 19 Jul 2018 15:33:51 +0100
 from code version 70483bd0ad64+  Sun, 10 Dec 2017 12:18:29 +0000
 Compiler: GNU Fortran 4.8.5; Optimisation: fast
 MATHLIBS: Intel MKL(2018.0.0) (LAPACK version 3.7.0)
 FFT Lib : mkl
 Fundamental constants values: CODATA 2014

 Run started: Sun, 11 Nov 2018 14:20:41 +0000

 Atomic calculation performed for Sn:
 1s2 2s2 2p6 3s2 3p6 3d10 4s2 4p6 4d10 5s2 5p2

 Converged in 79 iterations to an ae energy of -168090.064 eV


 Pseudo atomic calculation performed for Sn 4d10 5s2 5p2

 Converged in 27 iterations to a total energy of -2044.0517 eV

 Calculation not parallelised.

 ************************************ Title ************************************
 

 ***************************** General Parameters ******************************
  
 output verbosity                               : normal  (1)
 write checkpoint data to                       : ./Sn-19595-7369-74.check
 type of calculation                            : geometry optimization
 stress calculation                             : on
 density difference calculation                 : off
 electron localisation func (ELF) calculation   : off
 Hirshfeld analysis                             : off
 unlimited duration calculation
 timing information                             : on
 memory usage estimate                          : on
 write extra output files                       : on
 write final potential to formatted file        : off
 write final density to formatted file          : off
 write structure in CELL formatted file         : on
 write BibTeX reference list                    : off
 write OTFG pseudopotential files               : off
 write electrostatic potential file             : off
 write bands file                               : off
 checkpoint writing                             : off
  
 output         length unit                     : A
 output           mass unit                     : amu
 output           time unit                     : ps
 output         charge unit                     : e
 output           spin unit                     : hbar/2
 output         energy unit                     : eV
 output          force unit                     : eV/A
 output       velocity unit                     : A/ps
 output       pressure unit                     : GPa
 output     inv_length unit                     : 1/A
 output      frequency unit                     : cm-1
 output force constant unit                     : eV/A**2
 output         volume unit                     : A**3
 output   IR intensity unit                     : (D/A)**2/amu
 output         dipole unit                     : D
 output         efield unit                     : eV/A/e
 output        entropy unit                     : J/mol/K
  
 wavefunctions paging                           : none
 random number generator seed                   : randomised (142041145)
 data distribution                              : optimal for this architecture
 optimization strategy                          : maximize speed(+++)

 *********************** Exchange-Correlation Parameters ***********************
  
 using functional                               : Perdew Burke Ernzerhof
 relativistic treatment                         : Koelling-Harmon
 DFT+D: Semi-empirical dispersion correction    : off

 ************************* Pseudopotential Parameters **************************
  
 pseudopotential representation                 : reciprocal space
 <beta|phi> representation                      : reciprocal space
 spin-orbit coupling                            : off

 **************************** Basis Set Parameters *****************************
  
 plane wave basis set cut-off                   :   250.0000   eV
 size of standard grid                          :     1.7500
 size of   fine   gmax                          :    14.1758   1/A
 finite basis set correction                    : none

 **************************** Electronic Parameters ****************************
  
 number of  electrons                           :  28.00    
 net charge of system                           :  0.000    
 treating system as non-spin-polarized
 number of bands                                :         18

 ********************* Electronic Minimization Parameters **********************
  
 Method: Treating system as metallic with density mixing treatment of electrons,
         and number of  SD  steps               :          1
         and number of  CG  steps               :          4
  
 total energy / atom convergence tol.           : 0.1000E-04   eV
 eigen-energy convergence tolerance             : 0.1000E-05   eV
 max force / atom convergence tol.              : ignored
 convergence tolerance window                   :          3   cycles
 max. number of SCF cycles                      :       1000
 number of fixed-spin iterations                :         10
 smearing scheme                                : Gaussian
 smearing width                                 : 0.2000       eV
 Fermi energy convergence tolerance             : 0.2721E-13   eV
 periodic dipole correction                     : NONE

 ************************** Density Mixing Parameters **************************
  
 density-mixing scheme                          : Pulay
 max. length of mixing history                  :         20
 charge density mixing amplitude                : 0.8000    
 cut-off energy for mixing                      :  250.0       eV

 *********************** Population Analysis Parameters ************************
  
 Population analysis with cutoff                :  3.000       A
 Population analysis output                     : summary and pdos components

 ********************** Geometry Optimization Parameters ***********************
  
 optimization method                            : LBFGS
 max. no. of LBFGS updates                      : unbounded
 variable cell method                           : fixed basis size
 max. number of steps                           :          3
 estimated bulk modulus                         :  500.0       GPa
 estimated <frequency>                          :  1668.       cm-1
 geom line minimiser                            : on
 with line minimiser tolerance                  :     0.4000
 total energy convergence tolerance             : 0.2000E-04   eV/atom
        max ionic |force| tolerance             : 0.5000E-01   eV/A
 max ionic |displacement| tolerance             : 0.1000E-02   A
   max |stress component| tolerance             : 0.1000       GPa
 convergence tolerance window                   :          2   steps
 backup results every                           : 2147483647   steps
 write geom trajectory file                     : off

 *******************************************************************************
  

                           -------------------------------
                                      Unit Cell
                           -------------------------------
        Real Lattice(A)                      Reciprocal Lattice(1/A)
     2.8966800     0.0000000     0.0000000        2.169098867  -0.612353648  -0.508018585
     1.0459125     3.7048652     0.0000000        0.000000000   1.695928189   0.005266391
     1.1485957    -0.0152863     4.9226115        0.000000000   0.000000000   1.276392685

                       Lattice parameters(A)       Cell Angles
                    a =      2.896680          alpha =   86.627660
                    b =      3.849670          beta  =   76.866190
                    c =      5.054860          gamma =   74.235210

                       Current cell volume =            52.828526       A**3
                                   density =             4.494163   AMU/A**3
                                           =             7.462733     g/cm^3

                           -------------------------------
                                     Cell Contents
                           -------------------------------
                         Total number of ions in cell =    2
                      Total number of species in cell =    1
                        Max number of any one species =    2

            xxxxxxxxxxxxxxxxxxxxxxxxxxxxxxxxxxxxxxxxxxxxxxxxxxxxxxxxxxxx
            x  Element    Atom        Fractional coordinates of atoms  x
            x            Number           u          v          w      x
            x----------------------------------------------------------x
            x  Sn           1         0.448884   0.740107   0.551089   x 
            x  Sn           2         0.913684   0.156720   0.261508   x 
            xxxxxxxxxxxxxxxxxxxxxxxxxxxxxxxxxxxxxxxxxxxxxxxxxxxxxxxxxxxx


                         No user defined ionic velocities

                           -------------------------------
                                   Details of Species
                           -------------------------------

                               Mass of species in AMU
                                    Sn  118.7100000

                          Electric Quadrupole Moment (Barn)
                                    Sn    1.0000000 No Isotope Defined

                          Files used for pseudopotentials:
                                    Sn 3|2.2|7|7|9|50:51:42(qc=5)

                           -------------------------------
                              k-Points For BZ Sampling
                           -------------------------------
                       MP grid size for SCF calculation is  4  3  3
                            with an offset of   0.000  0.000  0.000
                       Number of kpoints used =            18

                           -------------------------------
                               Symmetry and Constraints
                           -------------------------------

                      Maximum deviation from symmetry = 0.470004E-15     ANG

                      Number of symmetry operations   =           2
                      Number of ionic constraints     =           3
                      Point group of crystal =     2: Ci, -1, -1
                      Space group of crystal =     2: P-1, -P 1

             Set iprint > 1 for details on symmetry rotations/translations

                         Centre of mass is constrained
             Set iprint > 1 for details of linear ionic constraints

                         Number of cell constraints= 0
                         Cell constraints are:  1 2 3 4 5 6

                         External pressure/stress (GPa)
                          0.00000   0.00000   0.00000
                                    0.00000   0.00000
                                              0.00000
  
+---------------- MEMORY AND SCRATCH DISK ESTIMATES PER PROCESS --------------+
|                                                     Memory          Disk    |
| Baseline code, static data and system overhead       36.0 MB         0.0 MB |
| BLAS internal memory storage                          0.0 MB         0.0 MB |
| Model and support data                               32.1 MB         0.0 MB |
| Electronic energy minimisation requirements           7.5 MB         0.0 MB |
| Force calculation requirements                        0.9 MB         0.0 MB |
| Stress calculation requirements                       1.0 MB         0.0 MB |
|                                               ----------------------------- |
| Approx. total storage required per process           75.5 MB         0.0 MB |
|                                                                             |
| Requirements will fluctuate during execution and may exceed these estimates |
+-----------------------------------------------------------------------------+
Calculating total energy with cut-off of  250.000 eV.
------------------------------------------------------------------------ <-- SCF
SCF loop      Energy           Fermi           Energy gain       Timer   <-- SCF
                               energy          per atom          (sec)   <-- SCF
------------------------------------------------------------------------ <-- SCF
Initial  -4.07291332E+003  0.00000000E+000                        14.13  <-- SCF
      1  -4.03991727E+003  9.74434897E+000  -1.64980227E+001      14.67  <-- SCF
      2  -4.09307847E+003  7.50516135E+000   2.65805997E+001      15.02  <-- SCF
      3  -4.09404310E+003  7.42411394E+000   4.82316042E-001      15.54  <-- SCF
      4  -4.09400191E+003  7.39130696E+000  -2.05981870E-002      16.09  <-- SCF
      5  -4.09400651E+003  7.41300923E+000   2.30033936E-003      16.86  <-- SCF
      6  -4.09400663E+003  7.41746345E+000   5.89793219E-005      17.37  <-- SCF
      7  -4.09400667E+003  7.42047633E+000   2.06653577E-005      17.79  <-- SCF
      8  -4.09400668E+003  7.42124143E+000   4.42039318E-006      18.14  <-- SCF
      9  -4.09400668E+003  7.42141490E+000   8.59056011E-007      18.45  <-- SCF
------------------------------------------------------------------------ <-- SCF
 
Final energy, E             =  -4093.990902367     eV
Final free energy (E-TS)    =  -4094.006678048     eV
(energies not corrected for finite basis set)
 
NB est. 0K energy (E-0.5TS)      =  -4093.998790208     eV
 

WARNING - doing cell minimisation without finite basis correction:
        => now searching for a stationary and not minimum energy
 
+---------------- MEMORY AND SCRATCH DISK ESTIMATES PER PROCESS --------------+
|                                                     Memory          Disk    |
| Model and support data                               42.8 MB         0.0 MB |
| Electronic energy minimisation requirements           7.5 MB         0.0 MB |
| Geometry minimisation requirements                   10.2 MB         0.0 MB |
|                                               ----------------------------- |
| Approx. total storage required per process           60.4 MB         0.0 MB |
|                                                                             |
| Requirements will fluctuate during execution and may exceed these estimates |
+-----------------------------------------------------------------------------+
 

 ******************************** Symmetrised Forces ********************************
 *                                                                                  *
 *                           Cartesian components (eV/A)                            *
 * -------------------------------------------------------------------------------- *
 *                         x                    y                    z              *
 *                                                                                  *
 * Sn              1     -0.07466             -2.06499              5.17624         *
 * Sn              2      0.07466              2.06499             -5.17624         *
 *                                                                                  *
 ************************************************************************************

 *********** Symmetrised Stress Tensor ***********
 *                                               *
 *          Cartesian components (GPa)           *
 * --------------------------------------------- *
 *             x             y             z     *
 *                                               *
 *  x     -3.127156     -3.269057      0.552118  *
 *  y     -3.269057    -14.741236      9.612992  *
 *  z      0.552118      9.612992      9.442496  *
 *                                               *
 *  Pressure:    2.8086                          *
 *                                               *
 *************************************************
 LBFGS: finished iteration     0 with enthalpy= -4.09400668E+003 eV
  
 +-----------+-----------------+-----------------+------------+-----+ <-- LBFGS
 | Parameter |      value      |    tolerance    |    units   | OK? | <-- LBFGS
 +-----------+-----------------+-----------------+------------+-----+ <-- LBFGS
 |  dE/ion   |   0.000000E+000 |   2.000000E-005 |         eV | No  | <-- LBFGS
 |  |F|max   |   5.573437E+000 |   5.000000E-002 |       eV/A | No  | <-- LBFGS
 |  |dR|max  |   0.000000E+000 |   1.000000E-003 |          A | No  | <-- LBFGS
 |   Smax    |   1.474124E+001 |   1.000000E-001 |        GPa | No  | <-- LBFGS
 +-----------+-----------------+-----------------+------------+-----+ <-- LBFGS
  

================================================================================
 Starting LBFGS iteration          1 ...
================================================================================
  
 +------------+-------------+-------------+-----------------+ <-- min LBFGS
 |    Step    |   lambda    |   F.delta'  |    enthalpy     | <-- min LBFGS
 +------------+-------------+-------------+-----------------+ <-- min LBFGS
 |  previous  |    0.000000 |    0.398736 |    -4094.006678 | <-- min LBFGS
 +------------+-------------+-------------+-----------------+ <-- min LBFGS
  

--------------------------------------------------------------------------------
 LBFGS: starting iteration         1 with trial guess (lambda=  1.000000)
--------------------------------------------------------------------------------
 
+---------------- MEMORY AND SCRATCH DISK ESTIMATES PER PROCESS --------------+
|                                                     Memory          Disk    |
| Model and support data                               42.8 MB         0.0 MB |
| Electronic energy minimisation requirements           7.5 MB         0.0 MB |
| Geometry minimisation requirements                   10.2 MB         0.0 MB |
|                                               ----------------------------- |
| Approx. total storage required per process           60.4 MB         0.0 MB |
|                                                                             |
| Requirements will fluctuate during execution and may exceed these estimates |
+-----------------------------------------------------------------------------+
 

                           -------------------------------
                                      Unit Cell
                           -------------------------------
        Real Lattice(A)              Reciprocal Lattice(1/A)
     2.9027189     0.0063129    -0.0010662        2.165733331  -0.614332829  -0.514396600
     1.0561673     3.7435541    -0.0241282       -0.003646788   1.679533905   0.016130152
     1.1491450    -0.0444806     4.8912989        0.000454098   0.008151031   1.284531209

                       Lattice parameters(A)       Cell Angles
                    a =      2.902726          alpha =   87.275142
                    b =      3.889765          beta  =   76.801630
                    c =      5.024671          gamma =   74.120242

                Current cell volume =            53.119961 A**3

                           -------------------------------
                                     Cell Contents
                           -------------------------------

            xxxxxxxxxxxxxxxxxxxxxxxxxxxxxxxxxxxxxxxxxxxxxxxxxxxxxxxxxxxxxxxxx
            x  Element         Atom        Fractional coordinates of atoms  x
            x                 Number           u          v          w      x
            x---------------------------------------------------------------x
            x  Sn                1         0.448683   0.739652   0.551955   x
            x  Sn                2         0.913884   0.157175   0.260642   x
            xxxxxxxxxxxxxxxxxxxxxxxxxxxxxxxxxxxxxxxxxxxxxxxxxxxxxxxxxxxxxxxxx


------------------------------------------------------------------------ <-- SCF
SCF loop      Energy           Fermi           Energy gain       Timer   <-- SCF
                               energy          per atom          (sec)   <-- SCF
------------------------------------------------------------------------ <-- SCF
Initial  -4.09587402E+003  0.00000000E+000                        20.30  <-- SCF
      1  -4.09480011E+003  7.23624305E+000  -5.36952418E-001      20.71  <-- SCF
      2  -4.09482342E+003  7.23584677E+000   1.16523956E-002      21.46  <-- SCF
      3  -4.09415773E+003  7.41086114E+000  -3.32842280E-001      22.00  <-- SCF
      4  -4.09415603E+003  7.38213241E+000  -8.50797761E-004      22.55  <-- SCF
      5  -4.09415610E+003  7.37095710E+000   3.24354551E-005      23.17  <-- SCF
      6  -4.09415610E+003  7.37100058E+000   3.18372711E-006      23.62  <-- SCF
      7  -4.09415611E+003  7.37036004E+000   4.34530357E-006      23.96  <-- SCF
------------------------------------------------------------------------ <-- SCF
 
Final energy, E             =  -4094.137935054     eV
Final free energy (E-TS)    =  -4094.156112834     eV
(energies not corrected for finite basis set)
 
NB est. 0K energy (E-0.5TS)      =  -4094.147023944     eV
 

 ******************************** Symmetrised Forces ********************************
 *                                                                                  *
 *                           Cartesian components (eV/A)                            *
 * -------------------------------------------------------------------------------- *
 *                         x                    y                    z              *
 *                                                                                  *
 * Sn              1     -0.05131             -1.69758              4.86685         *
 * Sn              2      0.05131              1.69758             -4.86685         *
 *                                                                                  *
 ************************************************************************************

 *********** Symmetrised Stress Tensor ***********
 *                                               *
 *          Cartesian components (GPa)           *
 * --------------------------------------------- *
 *             x             y             z     *
 *                                               *
 *  x     -0.490844     -2.120561      0.200466  *
 *  y     -2.120561     -9.805446      6.916304  *
 *  z      0.200466      6.916304     10.072264  *
 *                                               *
 *  Pressure:    0.0747                          *
 *                                               *
 *************************************************
  
 +------------+-------------+-------------+-----------------+ <-- min LBFGS
 |    Step    |   lambda    |   F.delta'  |    enthalpy     | <-- min LBFGS
 +------------+-------------+-------------+-----------------+ <-- min LBFGS
 |  previous  |    0.000000 |    0.398736 |    -4094.006678 | <-- min LBFGS
 | trial step |    1.000000 |    0.318602 |    -4094.156113 | <-- min LBFGS
 +------------+-------------+-------------+-----------------+ <-- min LBFGS
  

--------------------------------------------------------------------------------
 LBFGS: improving iteration         1 with line minimization (lambda=  4.975892)
--------------------------------------------------------------------------------
 
+---------------- MEMORY AND SCRATCH DISK ESTIMATES PER PROCESS --------------+
|                                                     Memory          Disk    |
| Model and support data                               42.8 MB         0.0 MB |
| Electronic energy minimisation requirements           7.5 MB         0.0 MB |
| Geometry minimisation requirements                   10.2 MB         0.0 MB |
|                                               ----------------------------- |
| Approx. total storage required per process           60.4 MB         0.0 MB |
|                                                                             |
| Requirements will fluctuate during execution and may exceed these estimates |
+-----------------------------------------------------------------------------+
 

                           -------------------------------
                                      Unit Cell
                           -------------------------------
        Real Lattice(A)              Reciprocal Lattice(1/A)
     2.9267290     0.0314125    -0.0053053        2.152529412  -0.622503277  -0.540868821
     1.0969391     3.8973773    -0.1200593       -0.017268420   1.618825754   0.058695717
     1.1513291    -0.1605542     4.7668032        0.001960778   0.040079804   1.318989372

                       Lattice parameters(A)       Cell Angles
                    a =      2.926902          alpha =   89.812903
                    b =      4.050585          beta  =   76.554065
                    c =      4.906501          gamma =   73.669706

                Current cell volume =            54.172590 A**3

                           -------------------------------
                                     Cell Contents
                           -------------------------------

            xxxxxxxxxxxxxxxxxxxxxxxxxxxxxxxxxxxxxxxxxxxxxxxxxxxxxxxxxxxxxxxxx
            x  Element         Atom        Fractional coordinates of atoms  x
            x                 Number           u          v          w      x
            x---------------------------------------------------------------x
            x  Sn                1         0.447888   0.737841   0.555398   x
            x  Sn                2         0.914680   0.158986   0.257199   x
            xxxxxxxxxxxxxxxxxxxxxxxxxxxxxxxxxxxxxxxxxxxxxxxxxxxxxxxxxxxxxxxxx


------------------------------------------------------------------------ <-- SCF
SCF loop      Energy           Fermi           Energy gain       Timer   <-- SCF
                               energy          per atom          (sec)   <-- SCF
------------------------------------------------------------------------ <-- SCF
Initial  -4.11660490E+003  0.00000000E+000                        25.84  <-- SCF
      1  -4.10483740E+003  7.31895271E+000  -5.88375159E+000      26.25  <-- SCF
      2  -4.10513909E+003  7.31208176E+000   1.50843299E-001      26.83  <-- SCF
      3  -4.09441602E+003  7.25707705E+000  -5.36153313E+000      27.37  <-- SCF
      4  -4.09454307E+003  7.25386367E+000   6.35222057E-002      27.91  <-- SCF
      5  -4.09441995E+003  7.22533072E+000  -6.15574123E-002      28.45  <-- SCF
      6  -4.09442372E+003  7.18689313E+000   1.88331844E-003      29.11  <-- SCF
      7  -4.09442422E+003  7.18016520E+000   2.52540127E-004      29.74  <-- SCF
      8  -4.09442435E+003  7.17511922E+000   6.43812322E-005      30.16  <-- SCF
      9  -4.09442435E+003  7.17497088E+000   1.16096046E-006      30.50  <-- SCF
     10  -4.09442435E+003  7.17473569E+000   4.83469151E-007      30.80  <-- SCF
     11  -4.09442435E+003  7.17476535E+000   2.14945170E-007      31.10  <-- SCF
------------------------------------------------------------------------ <-- SCF
 
Final energy, E             =  -4094.397252416     eV
Final free energy (E-TS)    =  -4094.424354772     eV
(energies not corrected for finite basis set)
 
NB est. 0K energy (E-0.5TS)      =  -4094.410803594     eV
 

 ******************************** Symmetrised Forces ********************************
 *                                                                                  *
 *                           Cartesian components (eV/A)                            *
 * -------------------------------------------------------------------------------- *
 *                         x                    y                    z              *
 *                                                                                  *
 * Sn              1     -0.03295             -0.41857              3.80940         *
 * Sn              2      0.03295              0.41857             -3.80940         *
 *                                                                                  *
 ************************************************************************************

 *********** Symmetrised Stress Tensor ***********
 *                                               *
 *          Cartesian components (GPa)           *
 * --------------------------------------------- *
 *             x             y             z     *
 *                                               *
 *  x     10.057698      2.633943     -1.391215  *
 *  y      2.633943     12.280035     -3.100874  *
 *  z     -1.391215     -3.100874     13.744143  *
 *                                               *
 *  Pressure:  -12.0273                          *
 *                                               *
 *************************************************
  
 +------------+-------------+-------------+-----------------+ <-- min LBFGS
 |    Step    |   lambda    |   F.delta'  |    enthalpy     | <-- min LBFGS
 +------------+-------------+-------------+-----------------+ <-- min LBFGS
 |  previous  |    0.000000 |    0.398736 |    -4094.006678 | <-- min LBFGS
 | trial step |    1.000000 |    0.318602 |    -4094.156113 | <-- min LBFGS
 |  line step |    4.975892 |    0.006064 |    -4094.424355 | <-- min LBFGS
 +------------+-------------+-------------+-----------------+ <-- min LBFGS
  
 LBFGS: finished iteration     1 with enthalpy= -4.09442435E+003 eV
  
 +-----------+-----------------+-----------------+------------+-----+ <-- LBFGS
 | Parameter |      value      |    tolerance    |    units   | OK? | <-- LBFGS
 +-----------+-----------------+-----------------+------------+-----+ <-- LBFGS
 |  dE/ion   |   2.088384E-001 |   2.000000E-005 |         eV | No  | <-- LBFGS
 |  |F|max   |   3.832466E+000 |   5.000000E-002 |       eV/A | No  | <-- LBFGS
 |  |dR|max  |   2.290942E-002 |   1.000000E-003 |          A | No  | <-- LBFGS
 |   Smax    |   1.374414E+001 |   1.000000E-001 |        GPa | No  | <-- LBFGS
 +-----------+-----------------+-----------------+------------+-----+ <-- LBFGS
  

================================================================================
 Starting LBFGS iteration          2 ...
================================================================================
  
 +------------+-------------+-------------+-----------------+ <-- min LBFGS
 |    Step    |   lambda    |   F.delta'  |    enthalpy     | <-- min LBFGS
 +------------+-------------+-------------+-----------------+ <-- min LBFGS
 |  previous  |    0.000000 |    0.288379 |    -4094.424355 | <-- min LBFGS
 +------------+-------------+-------------+-----------------+ <-- min LBFGS
  

--------------------------------------------------------------------------------
 LBFGS: starting iteration         2 with trial guess (lambda=  1.000000)
--------------------------------------------------------------------------------

                           -------------------------------
                                      Unit Cell
                           -------------------------------
        Real Lattice(A)              Reciprocal Lattice(1/A)
     2.9120016     0.0320120    -0.0035510        2.163883104  -0.625104418  -0.553385822
     1.0923882     3.8993222    -0.1331497       -0.017712694   1.618566517   0.065924467
     1.1484675    -0.1785584     4.6925073        0.001134901   0.045453726   1.340434370

                       Lattice parameters(A)       Cell Angles
                    a =      2.912180          alpha =   90.194499
                    b =      4.051636          beta  =   76.351654
                    c =      4.834303          gamma =   73.726703

                Current cell volume =            53.061006 A**3

                           -------------------------------
                                     Cell Contents
                           -------------------------------

            xxxxxxxxxxxxxxxxxxxxxxxxxxxxxxxxxxxxxxxxxxxxxxxxxxxxxxxxxxxxxxxxx
            x  Element         Atom        Fractional coordinates of atoms  x
            x                 Number           u          v          w      x
            x---------------------------------------------------------------x
            x  Sn                1         0.447497   0.737322   0.556778   x
            x  Sn                2         0.915071   0.159505   0.255819   x
            xxxxxxxxxxxxxxxxxxxxxxxxxxxxxxxxxxxxxxxxxxxxxxxxxxxxxxxxxxxxxxxxx


------------------------------------------------------------------------ <-- SCF
SCF loop      Energy           Fermi           Energy gain       Timer   <-- SCF
                               energy          per atom          (sec)   <-- SCF
------------------------------------------------------------------------ <-- SCF
Initial  -4.09729966E+003  0.00000000E+000                        32.94  <-- SCF
      1  -4.09582339E+003  7.52469743E+000  -7.38134917E-001      33.35  <-- SCF
      2  -4.09586579E+003  7.52426905E+000   2.11996228E-002      34.02  <-- SCF
      3  -4.09453515E+003  7.42382926E+000  -6.65321164E-001      34.52  <-- SCF
      4  -4.09454112E+003  7.44089293E+000   2.98581178E-003      35.06  <-- SCF
      5  -4.09454225E+003  7.42631005E+000   5.65557700E-004      35.69  <-- SCF
      6  -4.09454212E+003  7.41792464E+000  -6.38989831E-005      36.24  <-- SCF
      7  -4.09454188E+003  7.41763123E+000  -1.22036557E-004      36.78  <-- SCF
      8  -4.09454189E+003  7.41725155E+000   4.45092601E-006      37.10  <-- SCF
      9  -4.09454189E+003  7.41718798E+000  -1.48234128E-007      37.41  <-- SCF
------------------------------------------------------------------------ <-- SCF
 
Final energy, E             =  -4094.513857383     eV
Final free energy (E-TS)    =  -4094.541888037     eV
(energies not corrected for finite basis set)
 
NB est. 0K energy (E-0.5TS)      =  -4094.527872710     eV
 

 ******************************** Symmetrised Forces ********************************
 *                                                                                  *
 *                           Cartesian components (eV/A)                            *
 * -------------------------------------------------------------------------------- *
 *                         x                    y                    z              *
 *                                                                                  *
 * Sn              1     -0.06727             -0.26390              3.86578         *
 * Sn              2      0.06727              0.26390             -3.86578         *
 *                                                                                  *
 ************************************************************************************

 *********** Symmetrised Stress Tensor ***********
 *                                               *
 *          Cartesian components (GPa)           *
 * --------------------------------------------- *
 *             x             y             z     *
 *                                               *
 *  x      5.620061      3.001608     -1.342999  *
 *  y      3.001608      9.675321     -3.816102  *
 *  z     -1.342999     -3.816102      9.560344  *
 *                                               *
 *  Pressure:   -8.2852                          *
 *                                               *
 *************************************************
  
 +------------+-------------+-------------+-----------------+ <-- min LBFGS
 |    Step    |   lambda    |   F.delta'  |    enthalpy     | <-- min LBFGS
 +------------+-------------+-------------+-----------------+ <-- min LBFGS
 |  previous  |    0.000000 |    0.288379 |    -4094.424355 | <-- min LBFGS
 | trial step |    1.000000 |    0.218259 |    -4094.541888 | <-- min LBFGS
 +------------+-------------+-------------+-----------------+ <-- min LBFGS
  

--------------------------------------------------------------------------------
 LBFGS: improving iteration         2 with line minimization (lambda=  3.458682)
--------------------------------------------------------------------------------

                           -------------------------------
                                      Unit Cell
                           -------------------------------
        Real Lattice(A)              Reciprocal Lattice(1/A)
     2.8757916     0.0334858     0.0007623        2.192368248  -0.631973501  -0.586109418
     1.0811988     3.9041040    -0.1653349       -0.018864747   1.618192085   0.084727274
     1.1414317    -0.2228248     4.5098372       -0.001062179   0.059431268   1.396423022

                       Lattice parameters(A)       Cell Angles
                    a =      2.875987          alpha =   91.157496
                    b =      4.054424          beta  =   75.832146
                    c =      4.657376          gamma =   73.867831

                Current cell volume =            50.354575 A**3

                           -------------------------------
                                     Cell Contents
                           -------------------------------

            xxxxxxxxxxxxxxxxxxxxxxxxxxxxxxxxxxxxxxxxxxxxxxxxxxxxxxxxxxxxxxxxx
            x  Element         Atom        Fractional coordinates of atoms  x
            x                 Number           u          v          w      x
            x---------------------------------------------------------------x
            x  Sn                1         0.446535   0.736047   0.560170   x
            x  Sn                2         0.916032   0.160780   0.252427   x
            xxxxxxxxxxxxxxxxxxxxxxxxxxxxxxxxxxxxxxxxxxxxxxxxxxxxxxxxxxxxxxxxx


------------------------------------------------------------------------ <-- SCF
SCF loop      Energy           Fermi           Energy gain       Timer   <-- SCF
                               energy          per atom          (sec)   <-- SCF
------------------------------------------------------------------------ <-- SCF
Initial  -4.10935935E+003  0.00000000E+000                        39.35  <-- SCF
      1  -4.10431055E+003  8.42299346E+000  -2.52439689E+000      39.76  <-- SCF
      2  -4.10456242E+003  8.41981280E+000   1.25933985E-001      40.37  <-- SCF
      3  -4.09460226E+003  7.96119818E+000  -4.98007856E+000      40.82  <-- SCF
      4  -4.09502072E+003  7.95828602E+000   2.09227437E-001      41.44  <-- SCF
      5  -4.09469074E+003  8.09650372E+000  -1.64989692E-001      41.90  <-- SCF
      6  -4.09470297E+003  8.06918240E+000   6.11666964E-003      42.57  <-- SCF
      7  -4.09470171E+003  8.05991035E+000  -6.30780114E-004      43.10  <-- SCF
      8  -4.09470185E+003  8.05466228E+000   7.05323179E-005      43.70  <-- SCF
      9  -4.09470184E+003  8.05408647E+000  -4.94367782E-006      44.05  <-- SCF
     10  -4.09470184E+003  8.05402387E+000  -1.15042915E-006      44.37  <-- SCF
     11  -4.09470184E+003  8.05401108E+000   7.05609980E-007      44.68  <-- SCF
------------------------------------------------------------------------ <-- SCF
 
Final energy, E             =  -4094.674845634     eV
Final free energy (E-TS)    =  -4094.701842546     eV
(energies not corrected for finite basis set)
 
NB est. 0K energy (E-0.5TS)      =  -4094.688344090     eV
 

 ******************************** Symmetrised Forces ********************************
 *                                                                                  *
 *                           Cartesian components (eV/A)                            *
 * -------------------------------------------------------------------------------- *
 *                         x                    y                    z              *
 *                                                                                  *
 * Sn              1     -0.15347              0.18882              4.06579         *
 * Sn              2      0.15347             -0.18882             -4.06579         *
 *                                                                                  *
 ************************************************************************************

 *********** Symmetrised Stress Tensor ***********
 *                                               *
 *          Cartesian components (GPa)           *
 * --------------------------------------------- *
 *             x             y             z     *
 *                                               *
 *  x     -5.189258      4.206393     -1.438921  *
 *  y      4.206393      3.451019     -5.295336  *
 *  z     -1.438921     -5.295336      0.431077  *
 *                                               *
 *  Pressure:    0.4357                          *
 *                                               *
 *************************************************
  
 +------------+-------------+-------------+-----------------+ <-- min LBFGS
 |    Step    |   lambda    |   F.delta'  |    enthalpy     | <-- min LBFGS
 +------------+-------------+-------------+-----------------+ <-- min LBFGS
 |  previous  |    0.000000 |    0.288379 |    -4094.424355 | <-- min LBFGS
 | trial step |    1.000000 |    0.218259 |    -4094.541888 | <-- min LBFGS
 |  line step |    3.458682 |    0.065110 |    -4094.701843 | <-- min LBFGS
 +------------+-------------+-------------+-----------------+ <-- min LBFGS
  
 LBFGS: finished iteration     2 with enthalpy= -4.09470184E+003 eV
  
 +-----------+-----------------+-----------------+------------+-----+ <-- LBFGS
 | Parameter |      value      |    tolerance    |    units   | OK? | <-- LBFGS
 +-----------+-----------------+-----------------+------------+-----+ <-- LBFGS
 |  dE/ion   |   1.387439E-001 |   2.000000E-005 |         eV | No  | <-- LBFGS
 |  |F|max   |   4.073064E+000 |   5.000000E-002 |       eV/A | No  | <-- LBFGS
 |  |dR|max  |   2.327702E-002 |   1.000000E-003 |          A | No  | <-- LBFGS
 |   Smax    |   5.295336E+000 |   1.000000E-001 |        GPa | No  | <-- LBFGS
 +-----------+-----------------+-----------------+------------+-----+ <-- LBFGS
  

================================================================================
 Starting LBFGS iteration          3 ...
================================================================================
  
 +------------+-------------+-------------+-----------------+ <-- min LBFGS
 |    Step    |   lambda    |   F.delta'  |    enthalpy     | <-- min LBFGS
 +------------+-------------+-------------+-----------------+ <-- min LBFGS
 |  previous  |    0.000000 |    0.172812 |    -4094.701843 | <-- min LBFGS
 +------------+-------------+-------------+-----------------+ <-- min LBFGS
  
 geom_check_lambda: WARNING - unit cell strain > 10% and working with fixed basis size
 geom_check_lambda:         - suggest you reconsider your initial cell vectors
 geom_check_lambda:           and/or change to fixed basis quality calculation, 
 geom_check_lambda:           i.e. fixed_npw=.false.

--------------------------------------------------------------------------------
 LBFGS: starting iteration         3 with trial guess (lambda=  1.000000)
--------------------------------------------------------------------------------

                           -------------------------------
                                      Unit Cell
                           -------------------------------
        Real Lattice(A)              Reciprocal Lattice(1/A)
     2.8714961     0.0257828     0.0059820        2.195020894  -0.628010126  -0.604626671
     1.0697956     3.9019209    -0.1690665       -0.014715745   1.618188630   0.089407472
     1.1486394    -0.2333441     4.4123591       -0.003539722   0.062854879   1.428242313

                       Lattice parameters(A)       Cell Angles
                    a =      2.871618          alpha =   91.325531
                    b =      4.049448          beta  =   75.336527
                    c =      4.565384          gamma =   74.172847

                Current cell volume =            49.169322 A**3

                           -------------------------------
                                     Cell Contents
                           -------------------------------

            xxxxxxxxxxxxxxxxxxxxxxxxxxxxxxxxxxxxxxxxxxxxxxxxxxxxxxxxxxxxxxxxx
            x  Element         Atom        Fractional coordinates of atoms  x
            x                 Number           u          v          w      x
            x---------------------------------------------------------------x
            x  Sn                1         0.445637   0.735322   0.562848   x
            x  Sn                2         0.916930   0.161504   0.249749   x
            xxxxxxxxxxxxxxxxxxxxxxxxxxxxxxxxxxxxxxxxxxxxxxxxxxxxxxxxxxxxxxxxx


------------------------------------------------------------------------ <-- SCF
SCF loop      Energy           Fermi           Energy gain       Timer   <-- SCF
                               energy          per atom          (sec)   <-- SCF
------------------------------------------------------------------------ <-- SCF
Initial  -4.09732313E+003  0.00000000E+000                        46.58  <-- SCF
      1  -4.09588508E+003  8.58185211E+000  -7.19023360E-001      46.99  <-- SCF
      2  -4.09591384E+003  8.58152376E+000   1.43783474E-002      47.63  <-- SCF
      3  -4.09477698E+003  8.29727130E+000  -5.68426495E-001      48.07  <-- SCF
      4  -4.09478875E+003  8.32902369E+000   5.88473071E-003      48.61  <-- SCF
      5  -4.09478465E+003  8.32204290E+000  -2.05219606E-003      49.16  <-- SCF
      6  -4.09478451E+003  8.31622358E+000  -7.09094171E-005      49.70  <-- SCF
      7  -4.09478403E+003  8.31409095E+000  -2.37909012E-004      50.25  <-- SCF
      8  -4.09478404E+003  8.31338648E+000   4.20270981E-006      50.61  <-- SCF
      9  -4.09478404E+003  8.31332984E+000   6.23250468E-007      50.94  <-- SCF
------------------------------------------------------------------------ <-- SCF
 
Final energy, E             =  -4094.761424377     eV
Final free energy (E-TS)    =  -4094.784039856     eV
(energies not corrected for finite basis set)
 
NB est. 0K energy (E-0.5TS)      =  -4094.772732117     eV
 

 ******************************** Symmetrised Forces ********************************
 *                                                                                  *
 *                           Cartesian components (eV/A)                            *
 * -------------------------------------------------------------------------------- *
 *                         x                    y                    z              *
 *                                                                                  *
 * Sn              1     -0.23611              0.29968              4.00557         *
 * Sn              2      0.23611             -0.29968             -4.00557         *
 *                                                                                  *
 ************************************************************************************

 *********** Symmetrised Stress Tensor ***********
 *                                               *
 *          Cartesian components (GPa)           *
 * --------------------------------------------- *
 *             x             y             z     *
 *                                               *
 *  x     -8.021082      3.719840     -1.167780  *
 *  y      3.719840      1.200521     -5.096070  *
 *  z     -1.167780     -5.096070     -3.759067  *
 *                                               *
 *  Pressure:    3.5265                          *
 *                                               *
 *************************************************
  
 +------------+-------------+-------------+-----------------+ <-- min LBFGS
 |    Step    |   lambda    |   F.delta'  |    enthalpy     | <-- min LBFGS
 +------------+-------------+-------------+-----------------+ <-- min LBFGS
 |  previous  |    0.000000 |    0.172812 |    -4094.701843 | <-- min LBFGS
 | trial step |    1.000000 |    0.111289 |    -4094.784040 | <-- min LBFGS
 +------------+-------------+-------------+-----------------+ <-- min LBFGS
  
 geom_check_lambda: WARNING - unit cell strain > 10% and working with fixed basis size
 geom_check_lambda:         - suggest you reconsider your initial cell vectors
 geom_check_lambda:           and/or change to fixed basis quality calculation, 
 geom_check_lambda:           i.e. fixed_npw=.false.

--------------------------------------------------------------------------------
 LBFGS: improving iteration         3 with line minimization (lambda=  2.691409)
--------------------------------------------------------------------------------

                           -------------------------------
                                      Unit Cell
                           -------------------------------
        Real Lattice(A)              Reciprocal Lattice(1/A)
     2.8642307     0.0127537     0.0148106        2.199738947  -0.621493335  -0.637931544
     1.0505081     3.8982282    -0.1753783       -0.007711491   1.618283021   0.097790052
     1.1608306    -0.2511365     4.2474839       -0.007988700   0.068985882   1.485534471

                       Lattice parameters(A)       Cell Angles
                    a =      2.864297          alpha =   91.621859
                    b =      4.041102          beta  =   74.459319
                    c =      4.410410          gamma =   74.691235

                Current cell volume =            47.168379 A**3

                           -------------------------------
                                     Cell Contents
                           -------------------------------

            xxxxxxxxxxxxxxxxxxxxxxxxxxxxxxxxxxxxxxxxxxxxxxxxxxxxxxxxxxxxxxxxx
            x  Element         Atom        Fractional coordinates of atoms  x
            x                 Number           u          v          w      x
            x---------------------------------------------------------------x
            x  Sn                1         0.444118   0.734097   0.567378   x
            x  Sn                2         0.918449   0.162730   0.245219   x
            xxxxxxxxxxxxxxxxxxxxxxxxxxxxxxxxxxxxxxxxxxxxxxxxxxxxxxxxxxxxxxxxx


------------------------------------------------------------------------ <-- SCF
SCF loop      Energy           Fermi           Energy gain       Timer   <-- SCF
                               energy          per atom          (sec)   <-- SCF
------------------------------------------------------------------------ <-- SCF
Initial  -4.10168530E+003  0.00000000E+000                        52.89  <-- SCF
      1  -4.09855397E+003  9.22980598E+000  -1.56566326E+000      53.30  <-- SCF
      2  -4.09863677E+003  9.22844455E+000   4.13969451E-002      53.93  <-- SCF
      3  -4.09485849E+003  8.83278288E+000  -1.88913883E+000      54.37  <-- SCF
      4  -4.09486946E+003  8.89976436E+000   5.48369833E-003      54.89  <-- SCF
      5  -4.09485925E+003  8.88302533E+000  -5.10394890E-003      55.46  <-- SCF
      6  -4.09485829E+003  8.87302850E+000  -4.81542600E-004      56.01  <-- SCF
      7  -4.09485724E+003  8.87177661E+000  -5.22912249E-004      56.59  <-- SCF
      8  -4.09485727E+003  8.87063900E+000   1.69070688E-005      57.03  <-- SCF
      9  -4.09485727E+003  8.87074963E+000   7.13623503E-007      57.37  <-- SCF
     10  -4.09485728E+003  8.87070715E+000   1.01141813E-006      57.70  <-- SCF
     11  -4.09485728E+003  8.87074527E+000   5.94316635E-007      58.03  <-- SCF
------------------------------------------------------------------------ <-- SCF
 
Final energy, E             =  -4094.840741973     eV
Final free energy (E-TS)    =  -4094.857277712     eV
(energies not corrected for finite basis set)
 
NB est. 0K energy (E-0.5TS)      =  -4094.849009843     eV
 

 ******************************** Symmetrised Forces ********************************
 *                                                                                  *
 *                           Cartesian components (eV/A)                            *
 * -------------------------------------------------------------------------------- *
 *                         x                    y                    z              *
 *                                                                                  *
 * Sn              1     -0.34768              0.39093              4.00922         *
 * Sn              2      0.34768             -0.39093             -4.00922         *
 *                                                                                  *
 ************************************************************************************

 *********** Symmetrised Stress Tensor ***********
 *                                               *
 *          Cartesian components (GPa)           *
 * --------------------------------------------- *
 *             x             y             z     *
 *                                               *
 *  x    -14.465940      4.181996     -1.270946  *
 *  y      4.181996     -4.001067     -4.034458  *
 *  z     -1.270946     -4.034458     -8.409935  *
 *                                               *
 *  Pressure:    8.9590                          *
 *                                               *
 *************************************************
  
 +------------+-------------+-------------+-----------------+ <-- min LBFGS
 |    Step    |   lambda    |   F.delta'  |    enthalpy     | <-- min LBFGS
 +------------+-------------+-------------+-----------------+ <-- min LBFGS
 |  previous  |    0.000000 |    0.172812 |    -4094.701843 | <-- min LBFGS
 | trial step |    1.000000 |    0.111289 |    -4094.784040 | <-- min LBFGS
 |  line step |    2.691409 |    0.047293 |    -4094.857278 | <-- min LBFGS
 +------------+-------------+-------------+-----------------+ <-- min LBFGS
  
 geom_check_lambda: WARNING - unit cell strain > 10% and working with fixed basis size
 geom_check_lambda:         - suggest you reconsider your initial cell vectors
 geom_check_lambda:           and/or change to fixed basis quality calculation, 
 geom_check_lambda:           i.e. fixed_npw=.false.

--------------------------------------------------------------------------------
 LBFGS: improving iteration         3 with quad minimization (lambda=  3.941373)
--------------------------------------------------------------------------------

                           -------------------------------
                                      Unit Cell
                           -------------------------------
        Real Lattice(A)              Reciprocal Lattice(1/A)
     2.8588615     0.0031252     0.0213350        2.203424693  -0.616843032  -0.664303471
     1.0362544     3.8954993    -0.1800428       -0.002548308   1.618437492   0.104398408
     1.1698400    -0.2642852     4.1256397       -0.011505826   0.073818441   1.530951519

                       Lattice parameters(A)       Cell Angles
                    a =      2.858943          alpha =   91.851334
                    b =      4.034991          beta  =   73.777210
                    c =      4.296426          gamma =   75.076326

                Current cell volume =            45.692863 A**3

                           -------------------------------
                                     Cell Contents
                           -------------------------------

            xxxxxxxxxxxxxxxxxxxxxxxxxxxxxxxxxxxxxxxxxxxxxxxxxxxxxxxxxxxxxxxxx
            x  Element         Atom        Fractional coordinates of atoms  x
            x                 Number           u          v          w      x
            x---------------------------------------------------------------x
            x  Sn                1         0.442996   0.733191   0.570726   x
            x  Sn                2         0.919572   0.163636   0.241871   x
            xxxxxxxxxxxxxxxxxxxxxxxxxxxxxxxxxxxxxxxxxxxxxxxxxxxxxxxxxxxxxxxxx


------------------------------------------------------------------------ <-- SCF
SCF loop      Energy           Fermi           Energy gain       Timer   <-- SCF
                               energy          per atom          (sec)   <-- SCF
------------------------------------------------------------------------ <-- SCF
Initial  -4.09863992E+003  0.00000000E+000                        59.99  <-- SCF
      1  -4.09694313E+003  9.64072982E+000  -8.48391721E-001      60.41  <-- SCF
      2  -4.09698892E+003  9.64008942E+000   2.28928604E-002      61.04  <-- SCF
      3  -4.09486024E+003  9.26742293E+000  -1.06434191E+000      61.48  <-- SCF
      4  -4.09487644E+003  9.32466668E+000   8.10108955E-003      62.01  <-- SCF
      5  -4.09487013E+003  9.31635017E+000  -3.15390268E-003      62.58  <-- SCF
      6  -4.09486946E+003  9.31313854E+000  -3.35986091E-004      63.13  <-- SCF
      7  -4.09486870E+003  9.31089867E+000  -3.80312381E-004      63.68  <-- SCF
      8  -4.09486872E+003  9.31028843E+000   8.76142375E-006      64.08  <-- SCF
      9  -4.09486872E+003  9.31027088E+000   1.82170082E-006      64.42  <-- SCF
     10  -4.09486872E+003  9.31020375E+000   1.10702356E-006      64.75  <-- SCF
     11  -4.09486872E+003  9.31023659E+000   6.26537393E-007      65.08  <-- SCF
------------------------------------------------------------------------ <-- SCF
 
Final energy, E             =  -4094.862880456     eV
Final free energy (E-TS)    =  -4094.868722926     eV
(energies not corrected for finite basis set)
 
NB est. 0K energy (E-0.5TS)      =  -4094.865801691     eV
 

 ******************************** Symmetrised Forces ********************************
 *                                                                                  *
 *                           Cartesian components (eV/A)                            *
 * -------------------------------------------------------------------------------- *
 *                         x                    y                    z              *
 *                                                                                  *
 * Sn              1     -0.43860              0.52708              3.96984         *
 * Sn              2      0.43860             -0.52708             -3.96984         *
 *                                                                                  *
 ************************************************************************************

 *********** Symmetrised Stress Tensor ***********
 *                                               *
 *          Cartesian components (GPa)           *
 * --------------------------------------------- *
 *             x             y             z     *
 *                                               *
 *  x    -17.645969      3.645488     -1.126146  *
 *  y      3.645488     -8.037011     -4.542385  *
 *  z     -1.126146     -4.542385    -13.367918  *
 *                                               *
 *  Pressure:   13.0170                          *
 *                                               *
 *************************************************
  
 +------------+-------------+-------------+-----------------+ <-- min LBFGS
 |    Step    |   lambda    |   F.delta'  |    enthalpy     | <-- min LBFGS
 +------------+-------------+-------------+-----------------+ <-- min LBFGS
 |  previous  |    0.000000 |    0.172812 |    -4094.701843 | <-- min LBFGS
 | trial step |    1.000000 |    0.111289 |    -4094.784040 | <-- min LBFGS
 |  line step |    2.691409 |    0.047293 |    -4094.857278 | <-- min LBFGS
 |  quad step |    3.941373 |   -0.024845 |    -4094.868723 | <-- min LBFGS
 +------------+-------------+-------------+-----------------+ <-- min LBFGS
  
 LBFGS: finished iteration     3 with enthalpy= -4.09486872E+003 eV
  
 +-----------+-----------------+-----------------+------------+-----+ <-- LBFGS
 | Parameter |      value      |    tolerance    |    units   | OK? | <-- LBFGS
 +-----------+-----------------+-----------------+------------+-----+ <-- LBFGS
 |  dE/ion   |   8.344019E-002 |   2.000000E-005 |         eV | No  | <-- LBFGS
 |  |F|max   |   4.028628E+000 |   5.000000E-002 |       eV/A | No  | <-- LBFGS
 |  |dR|max  |   4.614597E-002 |   1.000000E-003 |          A | No  | <-- LBFGS
 |   Smax    |   1.764597E+001 |   1.000000E-001 |        GPa | No  | <-- LBFGS
 +-----------+-----------------+-----------------+------------+-----+ <-- LBFGS
  
 LBFGS: WARNING - Geometry optimization failed to converge after          3 steps

================================================================================
 LBFGS: Final Configuration:
================================================================================

                           -------------------------------
                                      Unit Cell
                           -------------------------------
        Real Lattice(A)              Reciprocal Lattice(1/A)
     2.8588615     0.0031252     0.0213350        2.203424693  -0.616843032  -0.664303471
     1.0362544     3.8954993    -0.1800428       -0.002548308   1.618437492   0.104398408
     1.1698400    -0.2642852     4.1256397       -0.011505826   0.073818441   1.530951519

                       Lattice parameters(A)       Cell Angles
                    a =      2.858943          alpha =   91.851334
                    b =      4.034991          beta  =   73.777210
                    c =      4.296426          gamma =   75.076326

                Current cell volume =            45.692863 A**3

                           -------------------------------
                                     Cell Contents
                           -------------------------------

            xxxxxxxxxxxxxxxxxxxxxxxxxxxxxxxxxxxxxxxxxxxxxxxxxxxxxxxxxxxxxxxxx
            x  Element         Atom        Fractional coordinates of atoms  x
            x                 Number           u          v          w      x
            x---------------------------------------------------------------x
            x  Sn                1         0.442996   0.733191   0.570726   x
            x  Sn                2         0.919572   0.163636   0.241871   x
            xxxxxxxxxxxxxxxxxxxxxxxxxxxxxxxxxxxxxxxxxxxxxxxxxxxxxxxxxxxxxxxxx


 LBFGS: Final Enthalpy     = -4.09486872E+003 eV
 LBFGS: Final <frequency>  =    1452.28114 cm-1
 LBFGS: Final bulk modulus =     150.56275 GPa
  
  **********************************************************
  *** There were at least     5 warnings during this run ***
  *** => please check the whole of this file carefully!  ***
  **********************************************************

 ******************************** Symmetrised Forces ********************************
 *                                                                                  *
 *                           Cartesian components (eV/A)                            *
 * -------------------------------------------------------------------------------- *
 *                         x                    y                    z              *
 *                                                                                  *
 * Sn              1     -0.43860              0.52708              3.96984         *
 * Sn              2      0.43860             -0.52708             -3.96984         *
 *                                                                                  *
 ************************************************************************************

 *********** Symmetrised Stress Tensor ***********
 *                                               *
 *          Cartesian components (GPa)           *
 * --------------------------------------------- *
 *             x             y             z     *
 *                                               *
 *  x    -17.645969      3.645488     -1.126146  *
 *  y      3.645488     -8.037011     -4.542385  *
 *  z     -1.126146     -4.542385    -13.367918  *
 *                                               *
 *  Pressure:   13.0170                          *
 *                                               *
 *************************************************

 Pseudo atomic calculation performed for Sn 4d10 5s2 5p2

 Converged in 27 iterations to a total energy of -2044.0517 eV

Charge spilling parameter for spin component 1 = 0.23%

            Orbital Populations       
     Ion    Atom   Orbital             Charge
  -------------------------------------------
     Sn     1      Dzz                  1.999
     Sn     1      Dzy                  1.999
     Sn     1      Dzx                  1.999
     Sn     1      Dxx-yy               1.998
     Sn     1      Dxy                  1.998
     Sn     1      S                    1.480
     Sn     1      Px                   0.773
     Sn     1      Py                   0.846
     Sn     1      Pz                   0.915
     Sn     1      S                   -0.006
     Sn     2      Dzz                  1.999
     Sn     2      Dzy                  1.999
     Sn     2      Dzx                  1.999
     Sn     2      Dxx-yy               1.998
     Sn     2      Dxy                  1.998
     Sn     2      S                    1.480
     Sn     2      Px                   0.773
     Sn     2      Py                   0.846
     Sn     2      Pz                   0.915
     Sn     2      S                   -0.006
  -------------------------------------------
                           Total:      28.000
  -------------------------------------------

     Atomic Populations (Mulliken)
     -----------------------------
Species          Ion     s      p      d      f     Total  Charge (e)
=====================================================================
  Sn              1     1.47   2.53   9.99   0.00  14.00     0.00
  Sn              2     1.47   2.53   9.99   0.00  14.00     0.00
=====================================================================

                 Bond                   Population      Length (A)
======================================================================
              Sn 1 -- Sn 2                  -1.59        2.49719
======================================================================

Initialisation time =     12.83 s
Calculation time    =     53.19 s
Finalisation time   =      0.01 s
Total time          =     66.03 s
Peak Memory Use     = 328972 kB
 +-------------------------------------------------+
 |                                                 |
 |      CCC   AA    SSS  TTTTT  EEEEE  PPPP        |
 |     C     A  A  S       T    E      P   P       |
 |     C     AAAA   SS     T    EEE    PPPP        |
 |     C     A  A     S    T    E      P           |
 |      CCC  A  A  SSS     T    EEEEE  P           |
 |                                                 |
 +-------------------------------------------------+
 |                                                 |
 | Welcome to Academic Release CASTEP version 18.1 |          
 | Ab Initio Total Energy Program                  |
 |                                                 |
 | Authors:                                        |
 | M. Segall, M. Probert, C. Pickard, P. Hasnip,   |
 | S. Clark, K. Refson, J. R. Yates, M. Payne      |
 |                                                 |
 | Contributors:                                   |
 | P. Lindan, P. Haynes, J. White, V. Milman,      |
 | N. Govind, M. Gibson, P. Tulip, V. Cocula,      |
 | B. Montanari, D. Quigley, M. Glover,            |
 | L. Bernasconi, A. Perlov, M. Plummer,           |
 | E. McNellis, J. Meyer, J. Gale, D. Jochym       |
 | J. Aarons, B. Walker, R. Gillen, D. Jones       |
 | T. Green, I. J. Bush, C. J. Armstrong,          |
 | E. J. Higgins, E. L. Brown, M. S. McFly,        |
 | J. Wilkins, B-C. Shih, P. J. P. Byrne           |
 |                                                 |
 | Copyright (c) 2000 - 2017                       |
 |                                                 |
 |     Distributed under the terms of an           |
 |     Agreement between the United Kingdom        |
 |     Car-Parrinello (UKCP) Consortium,           |
 |     Daresbury Laboratory and Accelrys, Inc.     |
 |                                                 |
 | Please cite                                     |
 |                                                 |
 |     "First principles methods using CASTEP"     |
 |                                                 |
 |         Zeitschrift fuer Kristallographie       |
 |           220(5-6) pp. 567-570 (2005)           |
 |                                                 |
 | S. J. Clark, M. D. Segall, C. J. Pickard,       |
 | P. J. Hasnip, M. J. Probert, K. Refson,         |
 | M. C. Payne                                     |
 |                                                 |
 |       in all publications arising from          |
 |              your use of CASTEP                 |
 |                                                 |
 +-------------------------------------------------+


 Compiled for linux_x86_64_gfortran4.8 on Thu, 19 Jul 2018 15:33:51 +0100
 from code version 70483bd0ad64+  Sun, 10 Dec 2017 12:18:29 +0000
 Compiler: GNU Fortran 4.8.5; Optimisation: fast
 MATHLIBS: Intel MKL(2018.0.0) (LAPACK version 3.7.0)
 FFT Lib : mkl
 Fundamental constants values: CODATA 2014

 Run started: Sun, 11 Nov 2018 14:21:47 +0000

 Atomic calculation performed for Sn:
 1s2 2s2 2p6 3s2 3p6 3d10 4s2 4p6 4d10 5s2 5p2

 Converged in 79 iterations to an ae energy of -168090.064 eV


 Pseudo atomic calculation performed for Sn 4d10 5s2 5p2

 Converged in 27 iterations to a total energy of -2044.0517 eV

 Calculation not parallelised.

 ************************************ Title ************************************
 

 ***************************** General Parameters ******************************
  
 output verbosity                               : normal  (1)
 write checkpoint data to                       : ./Sn-19595-7369-74.check
 type of calculation                            : geometry optimization
 stress calculation                             : on
 density difference calculation                 : off
 electron localisation func (ELF) calculation   : off
 Hirshfeld analysis                             : off
 unlimited duration calculation
 timing information                             : on
 memory usage estimate                          : on
 write extra output files                       : on
 write final potential to formatted file        : off
 write final density to formatted file          : off
 write structure in CELL formatted file         : on
 write BibTeX reference list                    : off
 write OTFG pseudopotential files               : off
 write electrostatic potential file             : off
 write bands file                               : off
 checkpoint writing                             : off
  
 output         length unit                     : A
 output           mass unit                     : amu
 output           time unit                     : ps
 output         charge unit                     : e
 output           spin unit                     : hbar/2
 output         energy unit                     : eV
 output          force unit                     : eV/A
 output       velocity unit                     : A/ps
 output       pressure unit                     : GPa
 output     inv_length unit                     : 1/A
 output      frequency unit                     : cm-1
 output force constant unit                     : eV/A**2
 output         volume unit                     : A**3
 output   IR intensity unit                     : (D/A)**2/amu
 output         dipole unit                     : D
 output         efield unit                     : eV/A/e
 output        entropy unit                     : J/mol/K
  
 wavefunctions paging                           : none
 random number generator seed                   : randomised (142147226)
 data distribution                              : optimal for this architecture
 optimization strategy                          : maximize speed(+++)

 *********************** Exchange-Correlation Parameters ***********************
  
 using functional                               : Perdew Burke Ernzerhof
 relativistic treatment                         : Koelling-Harmon
 DFT+D: Semi-empirical dispersion correction    : off

 ************************* Pseudopotential Parameters **************************
  
 pseudopotential representation                 : reciprocal space
 <beta|phi> representation                      : reciprocal space
 spin-orbit coupling                            : off

 **************************** Basis Set Parameters *****************************
  
 plane wave basis set cut-off                   :   250.0000   eV
 size of standard grid                          :     1.7500
 size of   fine   gmax                          :    14.1758   1/A
 finite basis set correction                    : none

 **************************** Electronic Parameters ****************************
  
 number of  electrons                           :  28.00    
 net charge of system                           :  0.000    
 treating system as non-spin-polarized
 number of bands                                :         18

 ********************* Electronic Minimization Parameters **********************
  
 Method: Treating system as metallic with density mixing treatment of electrons,
         and number of  SD  steps               :          1
         and number of  CG  steps               :          4
  
 total energy / atom convergence tol.           : 0.1000E-04   eV
 eigen-energy convergence tolerance             : 0.1000E-05   eV
 max force / atom convergence tol.              : ignored
 convergence tolerance window                   :          3   cycles
 max. number of SCF cycles                      :       1000
 number of fixed-spin iterations                :         10
 smearing scheme                                : Gaussian
 smearing width                                 : 0.2000       eV
 Fermi energy convergence tolerance             : 0.2721E-13   eV
 periodic dipole correction                     : NONE

 ************************** Density Mixing Parameters **************************
  
 density-mixing scheme                          : Pulay
 max. length of mixing history                  :         20
 charge density mixing amplitude                : 0.8000    
 cut-off energy for mixing                      :  250.0       eV

 *********************** Population Analysis Parameters ************************
  
 Population analysis with cutoff                :  3.000       A
 Population analysis output                     : summary and pdos components

 ********************** Geometry Optimization Parameters ***********************
  
 optimization method                            : LBFGS
 max. no. of LBFGS updates                      : unbounded
 variable cell method                           : fixed basis size
 max. number of steps                           :          3
 estimated bulk modulus                         :  500.0       GPa
 estimated <frequency>                          :  1668.       cm-1
 geom line minimiser                            : on
 with line minimiser tolerance                  :     0.4000
 total energy convergence tolerance             : 0.2000E-04   eV/atom
        max ionic |force| tolerance             : 0.5000E-01   eV/A
 max ionic |displacement| tolerance             : 0.1000E-02   A
   max |stress component| tolerance             : 0.1000       GPa
 convergence tolerance window                   :          2   steps
 backup results every                           : 2147483647   steps
 write geom trajectory file                     : off

 *******************************************************************************
  

                           -------------------------------
                                      Unit Cell
                           -------------------------------
        Real Lattice(A)                      Reciprocal Lattice(1/A)
     2.8588615     0.0031252     0.0213350        2.203424693  -0.616843032  -0.664303471
     1.0362544     3.8954993    -0.1800428       -0.002548308   1.618437492   0.104398408
     1.1698400    -0.2642852     4.1256397       -0.011505826   0.073818441   1.530951519

                       Lattice parameters(A)       Cell Angles
                    a =      2.858943          alpha =   91.851334
                    b =      4.034991          beta  =   73.777210
                    c =      4.296426          gamma =   75.076326

                       Current cell volume =            45.692863       A**3
                                   density =             5.195997   AMU/A**3
                                           =             8.628157     g/cm^3

                           -------------------------------
                                     Cell Contents
                           -------------------------------
                         Total number of ions in cell =    2
                      Total number of species in cell =    1
                        Max number of any one species =    2

            xxxxxxxxxxxxxxxxxxxxxxxxxxxxxxxxxxxxxxxxxxxxxxxxxxxxxxxxxxxx
            x  Element    Atom        Fractional coordinates of atoms  x
            x            Number           u          v          w      x
[...]
 *             x             y             z     *
 *                                               *
 *  x      0.140913     -0.009763      0.107673  *
 *  y     -0.009763      0.157626     -0.103214  *
 *  z      0.107673     -0.103214     -0.004761  *
 *                                               *
 *  Pressure:   -0.0979                          *
 *                                               *
 *************************************************
  
 +------------+-------------+-------------+-----------------+ <-- min LBFGS
 |    Step    |   lambda    |   F.delta'  |    enthalpy     | <-- min LBFGS
 +------------+-------------+-------------+-----------------+ <-- min LBFGS
 |  previous  |    0.000000 |    0.007970 |    -4095.297605 | <-- min LBFGS
 | trial step |    1.000000 |    0.002554 |    -4095.297714 | <-- min LBFGS
 |  line step |    1.471424 |   -0.000755 |    -4095.297725 | <-- min LBFGS
 +------------+-------------+-------------+-----------------+ <-- min LBFGS
  
 LBFGS: finished iteration     2 with enthalpy= -4.09529772E+003 eV
  
 +-----------+-----------------+-----------------+------------+-----+ <-- LBFGS
 | Parameter |      value      |    tolerance    |    units   | OK? | <-- LBFGS
 +-----------+-----------------+-----------------+------------+-----+ <-- LBFGS
 |  dE/ion   |   5.975897E-005 |   2.000000E-005 |         eV | No  | <-- LBFGS
 |  |F|max   |   1.222690E-002 |   5.000000E-002 |       eV/A | Yes | <-- LBFGS
 |  |dR|max  |   2.491515E-005 |   1.000000E-003 |          A | Yes | <-- LBFGS
 |   Smax    |   1.576264E-001 |   1.000000E-001 |        GPa | No  | <-- LBFGS
 +-----------+-----------------+-----------------+------------+-----+ <-- LBFGS
  

================================================================================
 Starting LBFGS iteration          3 ...
================================================================================
  
 +------------+-------------+-------------+-----------------+ <-- min LBFGS
 |    Step    |   lambda    |   F.delta'  |    enthalpy     | <-- min LBFGS
 +------------+-------------+-------------+-----------------+ <-- min LBFGS
 |  previous  |    0.000000 |    0.002837 |    -4095.297725 | <-- min LBFGS
 +------------+-------------+-------------+-----------------+ <-- min LBFGS
  

--------------------------------------------------------------------------------
 LBFGS: starting iteration         3 with trial guess (lambda=  1.000000)
--------------------------------------------------------------------------------

                           -------------------------------
                                      Unit Cell
                           -------------------------------
        Real Lattice(A)              Reciprocal Lattice(1/A)
     2.9108533     0.0245600     0.1865227        2.220174158  -0.633825284  -0.878440461
     1.0735238     3.8678333    -0.0775474       -0.021201827   1.632679796   0.115893615
     1.4111455    -0.2475179     3.7451278       -0.111012789   0.065373704   1.723845474

                       Lattice parameters(A)       Cell Angles
                    a =      2.916927          alpha =   89.049278
                    b =      4.014798          beta  =   65.770363
                    c =      4.009810          gamma =   74.114758

                Current cell volume =            40.940332 A**3

                           -------------------------------
                                     Cell Contents
                           -------------------------------

            xxxxxxxxxxxxxxxxxxxxxxxxxxxxxxxxxxxxxxxxxxxxxxxxxxxxxxxxxxxxxxxxx
            x  Element         Atom        Fractional coordinates of atoms  x
            x                 Number           u          v          w      x
            x---------------------------------------------------------------x
            x  Sn                1         0.182521   0.698312   0.656124   x
            x  Sn                2         1.180046   0.198515   0.156473   x
            xxxxxxxxxxxxxxxxxxxxxxxxxxxxxxxxxxxxxxxxxxxxxxxxxxxxxxxxxxxxxxxxx


------------------------------------------------------------------------ <-- SCF
SCF loop      Energy           Fermi           Energy gain       Timer   <-- SCF
                               energy          per atom          (sec)   <-- SCF
------------------------------------------------------------------------ <-- SCF
Initial  -4.09529566E+003  0.00000000E+000                        33.79  <-- SCF
      1  -4.09529786E+003  1.09186344E+001   1.09704442E-003      34.15  <-- SCF
      2  -4.09529786E+003  1.09186344E+001   1.51654464E-006      34.41  <-- SCF
      3  -4.09529773E+003  1.09179803E+001  -6.55748203E-005      34.78  <-- SCF
      4  -4.09529773E+003  1.09182069E+001   8.64975183E-007      35.04  <-- SCF
      5  -4.09529773E+003  1.09181133E+001   4.96068128E-007      35.29  <-- SCF
------------------------------------------------------------------------ <-- SCF
 
Final energy, E             =  -4095.295492360     eV
Final free energy (E-TS)    =  -4095.297732302     eV
(energies not corrected for finite basis set)
 
NB est. 0K energy (E-0.5TS)      =  -4095.296612331     eV
 

 ******************************** Symmetrised Forces ********************************
 *                                                                                  *
 *                           Cartesian components (eV/A)                            *
 * -------------------------------------------------------------------------------- *
 *                         x                    y                    z              *
 *                                                                                  *
 * Sn              1     -0.00528              0.00337              0.01071         *
 * Sn              2      0.00528             -0.00337             -0.01071         *
 *                                                                                  *
 ************************************************************************************

 *********** Symmetrised Stress Tensor ***********
 *                                               *
 *          Cartesian components (GPa)           *
 * --------------------------------------------- *
 *             x             y             z     *
 *                                               *
 *  x     -0.087981     -0.011776      0.072247  *
 *  y     -0.011776     -0.066467     -0.052499  *
 *  z      0.072247     -0.052499     -0.194485  *
 *                                               *
 *  Pressure:    0.1163                          *
 *                                               *
 *************************************************
  
 +------------+-------------+-------------+-----------------+ <-- min LBFGS
 |    Step    |   lambda    |   F.delta'  |    enthalpy     | <-- min LBFGS
 +------------+-------------+-------------+-----------------+ <-- min LBFGS
 |  previous  |    0.000000 |    0.002837 |    -4095.297725 | <-- min LBFGS
 | trial step |    1.000000 |    0.000445 |    -4095.297732 | <-- min LBFGS
 +------------+-------------+-------------+-----------------+ <-- min LBFGS
  
 LBFGS: finished iteration     3 with enthalpy= -4.09529773E+003 eV
  
 +-----------+-----------------+-----------------+------------+-----+ <-- LBFGS
 | Parameter |      value      |    tolerance    |    units   | OK? | <-- LBFGS
 +-----------+-----------------+-----------------+------------+-----+ <-- LBFGS
 |  dE/ion   |   3.755606E-006 |   2.000000E-005 |         eV | Yes | <-- LBFGS
 |  |F|max   |   1.240220E-002 |   5.000000E-002 |       eV/A | Yes | <-- LBFGS
 |  |dR|max  |   9.218432E-006 |   1.000000E-003 |          A | Yes | <-- LBFGS
 |   Smax    |   1.944853E-001 |   1.000000E-001 |        GPa | No  | <-- LBFGS
 +-----------+-----------------+-----------------+------------+-----+ <-- LBFGS
  

================================================================================
 Starting LBFGS iteration          4 ...
================================================================================
  
 +------------+-------------+-------------+-----------------+ <-- min LBFGS
 |    Step    |   lambda    |   F.delta'  |    enthalpy     | <-- min LBFGS
 +------------+-------------+-------------+-----------------+ <-- min LBFGS
 |  previous  |    0.000000 |    0.001839 |    -4095.297732 | <-- min LBFGS
 +------------+-------------+-------------+-----------------+ <-- min LBFGS
  

--------------------------------------------------------------------------------
 LBFGS: starting iteration         4 with trial guess (lambda=  1.000000)
--------------------------------------------------------------------------------

                           -------------------------------
                                      Unit Cell
                           -------------------------------
        Real Lattice(A)              Reciprocal Lattice(1/A)
     2.9107643     0.0246812     0.1861135        2.220106534  -0.633829172  -0.877840471
     1.0736431     3.8675702    -0.0772084       -0.021239448   1.632786917   0.115649442
     1.4105308    -0.2469517     3.7456167       -0.110751249   0.065150560   1.723479186

                       Lattice parameters(A)       Cell Angles
                    a =      2.916813          alpha =   89.038610
                    b =      4.014570          beta  =   65.788790
                    c =      4.010016          gamma =   74.109079

                Current cell volume =            40.944503 A**3

                           -------------------------------
                                     Cell Contents
                           -------------------------------

            xxxxxxxxxxxxxxxxxxxxxxxxxxxxxxxxxxxxxxxxxxxxxxxxxxxxxxxxxxxxxxxxx
            x  Element         Atom        Fractional coordinates of atoms  x
            x                 Number           u          v          w      x
            x---------------------------------------------------------------x
            x  Sn                1         0.182515   0.698311   0.656129   x
            x  Sn                2         1.180053   0.198516   0.156467   x
            xxxxxxxxxxxxxxxxxxxxxxxxxxxxxxxxxxxxxxxxxxxxxxxxxxxxxxxxxxxxxxxxx


------------------------------------------------------------------------ <-- SCF
SCF loop      Energy           Fermi           Energy gain       Timer   <-- SCF
                               energy          per atom          (sec)   <-- SCF
------------------------------------------------------------------------ <-- SCF
Initial  -4.09529545E+003  0.00000000E+000                        35.84  <-- SCF
      1  -4.09529896E+003  1.09160368E+001   1.75355837E-003      36.27  <-- SCF
      2  -4.09529897E+003  1.09160367E+001   4.00230290E-006      36.55  <-- SCF
      3  -4.09529776E+003  1.09169048E+001  -6.05568141E-004      37.01  <-- SCF
      4  -4.09529774E+003  1.09168835E+001  -9.26628576E-006      37.30  <-- SCF
      5  -4.09529774E+003  1.09169092E+001   8.61204500E-007      37.56  <-- SCF
------------------------------------------------------------------------ <-- SCF
 
Final energy, E             =  -4095.295559518     eV
Final free energy (E-TS)    =  -4095.297739040     eV
(energies not corrected for finite basis set)
 
NB est. 0K energy (E-0.5TS)      =  -4095.296649279     eV
 

 ******************************** Symmetrised Forces ********************************
 *                                                                                  *
 *                           Cartesian components (eV/A)                            *
 * -------------------------------------------------------------------------------- *
 *                         x                    y                    z              *
 *                                                                                  *
 * Sn              1     -0.00823              0.00565              0.01344         *
 * Sn              2      0.00823             -0.00565             -0.01344         *
 *                                                                                  *
 ************************************************************************************

 *********** Symmetrised Stress Tensor ***********
 *                                               *
 *          Cartesian components (GPa)           *
 * --------------------------------------------- *
 *             x             y             z     *
 *                                               *
 *  x      0.032795     -0.006991      0.001302  *
 *  y     -0.006991      0.050889      0.042884  *
 *  z      0.001302      0.042884      0.031374  *
 *                                               *
 *  Pressure:   -0.0384                          *
 *                                               *
 *************************************************
  
 +------------+-------------+-------------+-----------------+ <-- min LBFGS
 |    Step    |   lambda    |   F.delta'  |    enthalpy     | <-- min LBFGS
 +------------+-------------+-------------+-----------------+ <-- min LBFGS
 |  previous  |    0.000000 |    0.001839 |    -4095.297732 | <-- min LBFGS
 | trial step |    1.000000 |   -0.000252 |    -4095.297739 | <-- min LBFGS
 +------------+-------------+-------------+-----------------+ <-- min LBFGS
  
 LBFGS: finished iteration     4 with enthalpy= -4.09529774E+003 eV
  
 +-----------+-----------------+-----------------+------------+-----+ <-- LBFGS
 | Parameter |      value      |    tolerance    |    units   | OK? | <-- LBFGS
 +-----------+-----------------+-----------------+------------+-----+ <-- LBFGS
 |  dE/ion   |   3.368868E-006 |   2.000000E-005 |         eV | Yes | <-- LBFGS
 |  |F|max   |   1.674191E-002 |   5.000000E-002 |       eV/A | Yes | <-- LBFGS
 |  |dR|max  |   2.321137E-005 |   1.000000E-003 |          A | Yes | <-- LBFGS
 |   Smax    |   5.088872E-002 |   1.000000E-001 |        GPa | Yes | <-- LBFGS
 +-----------+-----------------+-----------------+------------+-----+ <-- LBFGS
  
 LBFGS: Geometry optimization completed successfully.

================================================================================
 LBFGS: Final Configuration:
================================================================================

                           -------------------------------
                                      Unit Cell
                           -------------------------------
        Real Lattice(A)              Reciprocal Lattice(1/A)
     2.9107643     0.0246812     0.1861135        2.220106534  -0.633829172  -0.877840471
     1.0736431     3.8675702    -0.0772084       -0.021239448   1.632786917   0.115649442
     1.4105308    -0.2469517     3.7456167       -0.110751249   0.065150560   1.723479186

                       Lattice parameters(A)       Cell Angles
                    a =      2.916813          alpha =   89.038610
                    b =      4.014570          beta  =   65.788790
                    c =      4.010016          gamma =   74.109079

                Current cell volume =            40.944503 A**3

                           -------------------------------
                                     Cell Contents
                           -------------------------------

            xxxxxxxxxxxxxxxxxxxxxxxxxxxxxxxxxxxxxxxxxxxxxxxxxxxxxxxxxxxxxxxxx
            x  Element         Atom        Fractional coordinates of atoms  x
            x                 Number           u          v          w      x
            x---------------------------------------------------------------x
            x  Sn                1         0.182515   0.698311   0.656129   x
            x  Sn                2         1.180053   0.198516   0.156467   x
            xxxxxxxxxxxxxxxxxxxxxxxxxxxxxxxxxxxxxxxxxxxxxxxxxxxxxxxxxxxxxxxxx


 LBFGS: Final Enthalpy     = -4.09529774E+003 eV
 LBFGS: Final <frequency>  =    1648.89945 cm-1
 LBFGS: Final bulk modulus =    1332.78220 GPa
  
  **********************************************************
  *** There were at least     1 warnings during this run ***
  *** => please check the whole of this file carefully!  ***
  **********************************************************

 ******************************** Symmetrised Forces ********************************
 *                                                                                  *
 *                           Cartesian components (eV/A)                            *
 * -------------------------------------------------------------------------------- *
 *                         x                    y                    z              *
 *                                                                                  *
 * Sn              1     -0.00823              0.00565              0.01344         *
 * Sn              2      0.00823             -0.00565             -0.01344         *
 *                                                                                  *
 ************************************************************************************

 *********** Symmetrised Stress Tensor ***********
 *                                               *
 *          Cartesian components (GPa)           *
 * --------------------------------------------- *
 *             x             y             z     *
 *                                               *
 *  x      0.032795     -0.006991      0.001302  *
 *  y     -0.006991      0.050889      0.042884  *
 *  z      0.001302      0.042884      0.031374  *
 *                                               *
 *  Pressure:   -0.0384                          *
 *                                               *
 *************************************************

 Pseudo atomic calculation performed for Sn 4d10 5s2 5p2

 Converged in 27 iterations to a total energy of -2044.0517 eV

Charge spilling parameter for spin component 1 = 0.21%

            Orbital Populations       
     Ion    Atom   Orbital             Charge
  -------------------------------------------
     Sn     1      Dzz                  1.999
     Sn     1      Dzy                  1.998
     Sn     1      Dzx                  1.999
     Sn     1      Dxx-yy               1.998
     Sn     1      Dxy                  1.999
     Sn     1      S                    1.315
     Sn     1      Px                   0.785
     Sn     1      Py                   0.843
     Sn     1      Pz                   0.847
     Sn     1      S                    0.216
     Sn     2      Dzz                  1.999
     Sn     2      Dzy                  1.998
     Sn     2      Dzx                  1.999
     Sn     2      Dxx-yy               1.998
     Sn     2      Dxy                  1.999
     Sn     2      S                    1.315
     Sn     2      Px                   0.785
     Sn     2      Py                   0.843
     Sn     2      Pz                   0.847
     Sn     2      S                    0.216
  -------------------------------------------
                           Total:      28.000
  -------------------------------------------

     Atomic Populations (Mulliken)
     -----------------------------
Species          Ion     s      p      d      f     Total  Charge (e)
=====================================================================
  Sn              1     1.53   2.48   9.99   0.00  14.00     0.00
  Sn              2     1.53   2.48   9.99   0.00  14.00     0.00
=====================================================================

                 Bond                   Population      Length (A)
======================================================================
======================================================================

Initialisation time =     12.96 s
Calculation time    =     25.50 s
Finalisation time   =      0.01 s
Total time          =     38.46 s
Peak Memory Use     = 328972 kB
