 +-------------------------------------------------+
 |                                                 |
 |      CCC   AA    SSS  TTTTT  EEEEE  PPPP        |
 |     C     A  A  S       T    E      P   P       |
 |     C     AAAA   SS     T    EEE    PPPP        |
 |     C     A  A     S    T    E      P           |
 |      CCC  A  A  SSS     T    EEEEE  P           |
 |                                                 |
 +-------------------------------------------------+
 |                                                 |
 | Welcome to Academic Release CASTEP version 18.1 |          
 | Ab Initio Total Energy Program                  |
 |                                                 |
 | Authors:                                        |
 | M. Segall, M. Probert, C. Pickard, P. Hasnip,   |
 | S. Clark, K. Refson, J. R. Yates, M. Payne      |
 |                                                 |
 | Contributors:                                   |
 | P. Lindan, P. Haynes, J. White, V. Milman,      |
 | N. Govind, M. Gibson, P. Tulip, V. Cocula,      |
 | B. Montanari, D. Quigley, M. Glover,            |
 | L. Bernasconi, A. Perlov, M. Plummer,           |
 | E. McNellis, J. Meyer, J. Gale, D. Jochym       |
 | J. Aarons, B. Walker, R. Gillen, D. Jones       |
 | T. Green, I. J. Bush, C. J. Armstrong,          |
 | E. J. Higgins, E. L. Brown, M. S. McFly,        |
 | J. Wilkins, B-C. Shih, P. J. P. Byrne           |
 |                                                 |
 | Copyright (c) 2000 - 2017                       |
 |                                                 |
 |     Distributed under the terms of an           |
 |     Agreement between the United Kingdom        |
 |     Car-Parrinello (UKCP) Consortium,           |
 |     Daresbury Laboratory and Accelrys, Inc.     |
 |                                                 |
 | Please cite                                     |
 |                                                 |
 |     "First principles methods using CASTEP"     |
 |                                                 |
 |         Zeitschrift fuer Kristallographie       |
 |           220(5-6) pp. 567-570 (2005)           |
 |                                                 |
 | S. J. Clark, M. D. Segall, C. J. Pickard,       |
 | P. J. Hasnip, M. J. Probert, K. Refson,         |
 | M. C. Payne                                     |
 |                                                 |
 |       in all publications arising from          |
 |              your use of CASTEP                 |
 |                                                 |
 +-------------------------------------------------+


 Compiled for linux_x86_64_gfortran4.8 on Thu, 19 Jul 2018 15:33:51 +0100
 from code version 70483bd0ad64+  Sun, 10 Dec 2017 12:18:29 +0000
 Compiler: GNU Fortran 4.8.5; Optimisation: fast
 MATHLIBS: Intel MKL(2018.0.0) (LAPACK version 3.7.0)
 FFT Lib : mkl
 Fundamental constants values: CODATA 2014

 Run started: Sun, 11 Nov 2018 14:25:16 +0000

 Atomic calculation performed for Sn:
 1s2 2s2 2p6 3s2 3p6 3d10 4s2 4p6 4d10 5s2 5p2

 Converged in 79 iterations to an ae energy of -168090.064 eV


 Pseudo atomic calculation performed for Sn 4d10 5s2 5p2

 Converged in 27 iterations to a total energy of -2044.0517 eV

 Calculation not parallelised.

 ************************************ Title ************************************
 

 ***************************** General Parameters ******************************
  
 output verbosity                               : normal  (1)
 write checkpoint data to                       : ./Sn-20052-7061-74.check
 type of calculation                            : geometry optimization
 stress calculation                             : on
 density difference calculation                 : off
 electron localisation func (ELF) calculation   : off
 Hirshfeld analysis                             : off
 unlimited duration calculation
 timing information                             : on
 memory usage estimate                          : on
 write extra output files                       : on
 write final potential to formatted file        : off
 write final density to formatted file          : off
 write structure in CELL formatted file         : on
 write BibTeX reference list                    : off
 write OTFG pseudopotential files               : off
 write electrostatic potential file             : off
 write bands file                               : off
 checkpoint writing                             : off
  
 output         length unit                     : A
 output           mass unit                     : amu
 output           time unit                     : ps
 output         charge unit                     : e
 output           spin unit                     : hbar/2
 output         energy unit                     : eV
 output          force unit                     : eV/A
 output       velocity unit                     : A/ps
 output       pressure unit                     : GPa
 output     inv_length unit                     : 1/A
 output      frequency unit                     : cm-1
 output force constant unit                     : eV/A**2
 output         volume unit                     : A**3
 output   IR intensity unit                     : (D/A)**2/amu
 output         dipole unit                     : D
 output         efield unit                     : eV/A/e
 output        entropy unit                     : J/mol/K
  
 wavefunctions paging                           : none
 random number generator seed                   : randomised (142516496)
 data distribution                              : optimal for this architecture
 optimization strategy                          : maximize speed(+++)

 *********************** Exchange-Correlation Parameters ***********************
  
 using functional                               : Perdew Burke Ernzerhof
 relativistic treatment                         : Koelling-Harmon
 DFT+D: Semi-empirical dispersion correction    : off

 ************************* Pseudopotential Parameters **************************
  
 pseudopotential representation                 : reciprocal space
 <beta|phi> representation                      : reciprocal space
 spin-orbit coupling                            : off

 **************************** Basis Set Parameters *****************************
  
 plane wave basis set cut-off                   :   250.0000   eV
 size of standard grid                          :     1.7500
 size of   fine   gmax                          :    14.1758   1/A
 finite basis set correction                    : none

 **************************** Electronic Parameters ****************************
  
 number of  electrons                           :  28.00    
 net charge of system                           :  0.000    
 treating system as non-spin-polarized
 number of bands                                :         18

 ********************* Electronic Minimization Parameters **********************
  
 Method: Treating system as metallic with density mixing treatment of electrons,
         and number of  SD  steps               :          1
         and number of  CG  steps               :          4
  
 total energy / atom convergence tol.           : 0.1000E-04   eV
 eigen-energy convergence tolerance             : 0.1000E-05   eV
 max force / atom convergence tol.              : ignored
 convergence tolerance window                   :          3   cycles
 max. number of SCF cycles                      :       1000
 number of fixed-spin iterations                :         10
 smearing scheme                                : Gaussian
 smearing width                                 : 0.2000       eV
 Fermi energy convergence tolerance             : 0.2721E-13   eV
 periodic dipole correction                     : NONE

 ************************** Density Mixing Parameters **************************
  
 density-mixing scheme                          : Pulay
 max. length of mixing history                  :         20
 charge density mixing amplitude                : 0.8000    
 cut-off energy for mixing                      :  250.0       eV

 *********************** Population Analysis Parameters ************************
  
 Population analysis with cutoff                :  3.000       A
 Population analysis output                     : summary and pdos components

 ********************** Geometry Optimization Parameters ***********************
  
 optimization method                            : LBFGS
 max. no. of LBFGS updates                      : unbounded
 variable cell method                           : fixed basis size
 max. number of steps                           :          3
 estimated bulk modulus                         :  500.0       GPa
 estimated <frequency>                          :  1668.       cm-1
 geom line minimiser                            : on
 with line minimiser tolerance                  :     0.4000
 total energy convergence tolerance             : 0.2000E-04   eV/atom
        max ionic |force| tolerance             : 0.5000E-01   eV/A
 max ionic |displacement| tolerance             : 0.1000E-02   A
   max |stress component| tolerance             : 0.1000       GPa
 convergence tolerance window                   :          2   steps
 backup results every                           : 2147483647   steps
 write geom trajectory file                     : off

 *******************************************************************************
  

                           -------------------------------
                                      Unit Cell
                           -------------------------------
        Real Lattice(A)                      Reciprocal Lattice(1/A)
     3.6737700     0.0000000     0.0000000        1.710282709   0.736770060   0.195935973
    -1.5972848     3.7078171     0.0000000        0.000000000   1.694578027   0.391110584
    -0.0613366    -0.9352276     4.0520921        0.000000000   0.000000000   1.550602785

                       Lattice parameters(A)       Cell Angles
                    a =      3.673770          alpha =  101.576860
                    b =      4.037230          beta  =   90.845010
                    c =      4.159070          gamma =  113.305820

                       Current cell volume =            55.196250       A**3
                                   density =             4.301379   AMU/A**3
                                           =             7.142608     g/cm^3

                           -------------------------------
                                     Cell Contents
                           -------------------------------
                         Total number of ions in cell =    2
                      Total number of species in cell =    1
                        Max number of any one species =    2

            xxxxxxxxxxxxxxxxxxxxxxxxxxxxxxxxxxxxxxxxxxxxxxxxxxxxxxxxxxxx
            x  Element    Atom        Fractional coordinates of atoms  x
            x            Number           u          v          w      x
            x----------------------------------------------------------x
            x  Sn           1         0.065946  -0.001447   0.158540   x 
            x  Sn           2         0.433027   0.677912   0.397112   x 
            xxxxxxxxxxxxxxxxxxxxxxxxxxxxxxxxxxxxxxxxxxxxxxxxxxxxxxxxxxxx


                         No user defined ionic velocities

                           -------------------------------
                                   Details of Species
                           -------------------------------

                               Mass of species in AMU
                                    Sn  118.7100000

                          Electric Quadrupole Moment (Barn)
                                    Sn    1.0000000 No Isotope Defined

                          Files used for pseudopotentials:
                                    Sn 3|2.2|7|7|9|50:51:42(qc=5)

                           -------------------------------
                              k-Points For BZ Sampling
                           -------------------------------
                       MP grid size for SCF calculation is  3  3  3
                            with an offset of   0.000  0.000  0.000
                       Number of kpoints used =            14

                           -------------------------------
                               Symmetry and Constraints
                           -------------------------------

                      Maximum deviation from symmetry = 0.940008E-15     ANG

                      Number of symmetry operations   =           2
                      Number of ionic constraints     =           3
                      Point group of crystal =     2: Ci, -1, -1
                      Space group of crystal =     2: P-1, -P 1

             Set iprint > 1 for details on symmetry rotations/translations

                         Centre of mass is constrained
             Set iprint > 1 for details of linear ionic constraints

                         Number of cell constraints= 0
                         Cell constraints are:  1 2 3 4 5 6

                         External pressure/stress (GPa)
                          0.00000   0.00000   0.00000
                                    0.00000   0.00000
                                              0.00000
  
+---------------- MEMORY AND SCRATCH DISK ESTIMATES PER PROCESS --------------+
|                                                     Memory          Disk    |
| Baseline code, static data and system overhead       36.0 MB         0.0 MB |
| BLAS internal memory storage                          0.0 MB         0.0 MB |
| Model and support data                               31.0 MB         0.0 MB |
| Electronic energy minimisation requirements           6.6 MB         0.0 MB |
| Force calculation requirements                        1.0 MB         0.0 MB |
| Stress calculation requirements                       1.2 MB         0.0 MB |
|                                               ----------------------------- |
| Approx. total storage required per process           73.6 MB         0.0 MB |
|                                                                             |
| Requirements will fluctuate during execution and may exceed these estimates |
+-----------------------------------------------------------------------------+
Calculating total energy with cut-off of  250.000 eV.
------------------------------------------------------------------------ <-- SCF
SCF loop      Energy           Fermi           Energy gain       Timer   <-- SCF
                               energy          per atom          (sec)   <-- SCF
------------------------------------------------------------------------ <-- SCF
Initial  -4.07102354E+003  0.00000000E+000                        14.37  <-- SCF
      1  -4.04005300E+003  8.93079854E+000  -1.54852714E+001      14.80  <-- SCF
      2  -4.09278057E+003  7.11339655E+000   2.63637848E+001      15.08  <-- SCF
      3  -4.09378973E+003  7.02330666E+000   5.04578412E-001      15.52  <-- SCF
      4  -4.09374229E+003  7.04969114E+000  -2.37168988E-002      15.98  <-- SCF
      5  -4.09374606E+003  7.08021524E+000   1.88430711E-003      16.59  <-- SCF
      6  -4.09374663E+003  7.08952599E+000   2.82973688E-004      17.01  <-- SCF
      7  -4.09374677E+003  7.09437708E+000   7.17616464E-005      17.38  <-- SCF
      8  -4.09374679E+003  7.09519867E+000   8.29294839E-006      17.68  <-- SCF
      9  -4.09374679E+003  7.09543322E+000   1.13067318E-006      17.94  <-- SCF
------------------------------------------------------------------------ <-- SCF
 
Final energy, E             =  -4093.709912979     eV
Final free energy (E-TS)    =  -4093.746789147     eV
(energies not corrected for finite basis set)
 
NB est. 0K energy (E-0.5TS)      =  -4093.728351063     eV
 

WARNING - doing cell minimisation without finite basis correction:
        => now searching for a stationary and not minimum energy
 
+---------------- MEMORY AND SCRATCH DISK ESTIMATES PER PROCESS --------------+
|                                                     Memory          Disk    |
| Model and support data                               41.7 MB         0.0 MB |
| Electronic energy minimisation requirements           6.6 MB         0.0 MB |
| Geometry minimisation requirements                    8.8 MB         0.0 MB |
|                                               ----------------------------- |
| Approx. total storage required per process           57.0 MB         0.0 MB |
|                                                                             |
| Requirements will fluctuate during execution and may exceed these estimates |
+-----------------------------------------------------------------------------+
 

 ******************************** Symmetrised Forces ********************************
 *                                                                                  *
 *                           Cartesian components (eV/A)                            *
 * -------------------------------------------------------------------------------- *
 *                         x                    y                    z              *
 *                                                                                  *
 * Sn              1     -0.11864              1.21041             -3.68470         *
 * Sn              2      0.11864             -1.21041              3.68470         *
 *                                                                                  *
 ************************************************************************************

 *********** Symmetrised Stress Tensor ***********
 *                                               *
 *          Cartesian components (GPa)           *
 * --------------------------------------------- *
 *             x             y             z     *
 *                                               *
 *  x     -5.562420     -0.563422      0.454418  *
 *  y     -0.563422    -13.320422      2.819638  *
 *  z      0.454418      2.819638     14.683494  *
 *                                               *
 *  Pressure:    1.3998                          *
 *                                               *
 *************************************************
 LBFGS: finished iteration     0 with enthalpy= -4.09374679E+003 eV
  
 +-----------+-----------------+-----------------+------------+-----+ <-- LBFGS
 | Parameter |      value      |    tolerance    |    units   | OK? | <-- LBFGS
 +-----------+-----------------+-----------------+------------+-----+ <-- LBFGS
 |  dE/ion   |   0.000000E+000 |   2.000000E-005 |         eV | No  | <-- LBFGS
 |  |F|max   |   3.880231E+000 |   5.000000E-002 |       eV/A | No  | <-- LBFGS
 |  |dR|max  |   1.101571E-016 |   1.000000E-003 |          A | No  | <-- LBFGS
 |   Smax    |   1.468349E+001 |   1.000000E-001 |        GPa | No  | <-- LBFGS
 +-----------+-----------------+-----------------+------------+-----+ <-- LBFGS
  

================================================================================
 Starting LBFGS iteration          1 ...
================================================================================
  
 +------------+-------------+-------------+-----------------+ <-- min LBFGS
 |    Step    |   lambda    |   F.delta'  |    enthalpy     | <-- min LBFGS
 +------------+-------------+-------------+-----------------+ <-- min LBFGS
 |  previous  |    0.000000 |    0.329993 |    -4093.746789 | <-- min LBFGS
 +------------+-------------+-------------+-----------------+ <-- min LBFGS
  

--------------------------------------------------------------------------------
 LBFGS: starting iteration         1 with trial guess (lambda=  1.000000)
--------------------------------------------------------------------------------
 
+---------------- MEMORY AND SCRATCH DISK ESTIMATES PER PROCESS --------------+
|                                                     Memory          Disk    |
| Model and support data                               41.7 MB         0.0 MB |
| Electronic energy minimisation requirements           6.6 MB         0.0 MB |
| Geometry minimisation requirements                    8.8 MB         0.0 MB |
|                                               ----------------------------- |
| Approx. total storage required per process           57.1 MB         0.0 MB |
|                                                                             |
| Requirements will fluctuate during execution and may exceed these estimates |
+-----------------------------------------------------------------------------+
 

                           -------------------------------
                                      Unit Cell
                           -------------------------------
        Real Lattice(A)              Reciprocal Lattice(1/A)
     3.6873934     0.0013799    -0.0011130        1.703751038   0.730022836   0.199780028
    -1.6018153     3.7401435    -0.0064859       -0.000508675   1.680404213   0.398166837
    -0.0631429    -0.9511727     4.0142028        0.000471549   0.002917499   1.565937366

                       Lattice parameters(A)       Cell Angles
                    a =      3.687394          alpha =  101.972859
                    b =      4.068726          beta  =   90.898675
                    c =      4.125838          gamma =  113.162805

                Current cell volume =            55.345565 A**3

                           -------------------------------
                                     Cell Contents
                           -------------------------------

            xxxxxxxxxxxxxxxxxxxxxxxxxxxxxxxxxxxxxxxxxxxxxxxxxxxxxxxxxxxxxxxxx
            x  Element         Atom        Fractional coordinates of atoms  x
            x                 Number           u          v          w      x
            x---------------------------------------------------------------x
            x  Sn                1         0.065942  -0.001367   0.157791   x
            x  Sn                2         0.433031   0.677833   0.397861   x
            xxxxxxxxxxxxxxxxxxxxxxxxxxxxxxxxxxxxxxxxxxxxxxxxxxxxxxxxxxxxxxxxx


------------------------------------------------------------------------ <-- SCF
SCF loop      Energy           Fermi           Energy gain       Timer   <-- SCF
                               energy          per atom          (sec)   <-- SCF
------------------------------------------------------------------------ <-- SCF
Initial  -4.09424923E+003  0.00000000E+000                        18.56  <-- SCF
      1  -4.09445459E+003  7.08242561E+000   1.02681823E-001      18.90  <-- SCF
      2  -4.09448406E+003  7.08202989E+000   1.47326099E-002      19.54  <-- SCF
      3  -4.09386534E+003  7.08265096E+000  -3.09357173E-001      19.96  <-- SCF
      4  -4.09386284E+003  7.08187926E+000  -1.25036539E-003      20.42  <-- SCF
      5  -4.09386313E+003  7.07822626E+000   1.43319667E-004      20.97  <-- SCF
      6  -4.09386316E+003  7.07729432E+000   1.53101851E-005      21.27  <-- SCF
      7  -4.09386316E+003  7.07688485E+000   2.17492847E-006      21.54  <-- SCF
      8  -4.09386316E+003  7.07680099E+000   6.94834280E-007      21.79  <-- SCF
------------------------------------------------------------------------ <-- SCF
 
Final energy, E             =  -4093.826024999     eV
Final free energy (E-TS)    =  -4093.863163245     eV
(energies not corrected for finite basis set)
 
NB est. 0K energy (E-0.5TS)      =  -4093.844594122     eV
 

 ******************************** Symmetrised Forces ********************************
 *                                                                                  *
 *                           Cartesian components (eV/A)                            *
 * -------------------------------------------------------------------------------- *
 *                         x                    y                    z              *
 *                                                                                  *
 * Sn              1     -0.15108              1.20411             -3.49224         *
 * Sn              2      0.15108             -1.20411              3.49224         *
 *                                                                                  *
 ************************************************************************************

 *********** Symmetrised Stress Tensor ***********
 *                                               *
 *          Cartesian components (GPa)           *
 * --------------------------------------------- *
 *             x             y             z     *
 *                                               *
 *  x     -3.034372     -0.571462      0.565985  *
 *  y     -0.571462     -9.525156      2.118529  *
 *  z      0.565985      2.118529     13.894171  *
 *                                               *
 *  Pressure:   -0.4449                          *
 *                                               *
 *************************************************
  
 +------------+-------------+-------------+-----------------+ <-- min LBFGS
 |    Step    |   lambda    |   F.delta'  |    enthalpy     | <-- min LBFGS
 +------------+-------------+-------------+-----------------+ <-- min LBFGS
 |  previous  |    0.000000 |    0.329993 |    -4093.746789 | <-- min LBFGS
 | trial step |    1.000000 |    0.279484 |    -4093.863163 | <-- min LBFGS
 +------------+-------------+-------------+-----------------+ <-- min LBFGS
  

--------------------------------------------------------------------------------
 LBFGS: improving iteration         1 with line minimization (lambda=  6.430261)
--------------------------------------------------------------------------------
 
+---------------- MEMORY AND SCRATCH DISK ESTIMATES PER PROCESS --------------+
|                                                     Memory          Disk    |
| Model and support data                               41.7 MB         0.0 MB |
| Electronic energy minimisation requirements           6.6 MB         0.0 MB |
| Geometry minimisation requirements                    8.8 MB         0.0 MB |
|                                               ----------------------------- |
| Approx. total storage required per process           57.1 MB         0.0 MB |
|                                                                             |
| Requirements will fluctuate during execution and may exceed these estimates |
+-----------------------------------------------------------------------------+
 

                           -------------------------------
                                      Unit Cell
                           -------------------------------
        Real Lattice(A)              Reciprocal Lattice(1/A)
     3.7613718     0.0088733    -0.0071566        1.669230814   0.695690529   0.221541837
    -1.6264169     3.9156849    -0.0417061       -0.002959895   1.608056769   0.438119741
    -0.0729516    -1.0377586     3.8084538        0.003104282   0.018917002   1.655013647

                       Lattice parameters(A)       Cell Angles
                    a =      3.761389          alpha =  104.190064
                    b =      4.240231          beta  =   91.199494
                    c =      3.947985          gamma =  112.418510

                Current cell volume =            55.970299 A**3

                           -------------------------------
                                     Cell Contents
                           -------------------------------

            xxxxxxxxxxxxxxxxxxxxxxxxxxxxxxxxxxxxxxxxxxxxxxxxxxxxxxxxxxxxxxxxx
            x  Element         Atom        Fractional coordinates of atoms  x
            x                 Number           u          v          w      x
            x---------------------------------------------------------------x
            x  Sn                1         0.065918  -0.000933   0.153725   x
            x  Sn                2         0.433055   0.677398   0.401928   x
            xxxxxxxxxxxxxxxxxxxxxxxxxxxxxxxxxxxxxxxxxxxxxxxxxxxxxxxxxxxxxxxxx


------------------------------------------------------------------------ <-- SCF
SCF loop      Energy           Fermi           Energy gain       Timer   <-- SCF
                               energy          per atom          (sec)   <-- SCF
------------------------------------------------------------------------ <-- SCF
Initial  -4.10139184E+003  0.00000000E+000                        23.80  <-- SCF
      1  -4.11038728E+003  7.31331258E+000   4.49771982E+000      24.13  <-- SCF
      2  -4.11116400E+003  7.30257875E+000   3.88356430E-001      24.61  <-- SCF
      3  -4.09418211E+003  7.04037388E+000  -8.49094505E+000      25.05  <-- SCF
      4  -4.09437113E+003  7.03412089E+000   9.45106934E-002      25.50  <-- SCF
      5  -4.09419821E+003  7.01137002E+000  -8.64608707E-002      25.93  <-- SCF
      6  -4.09420039E+003  6.98025389E+000   1.09412239E-003      26.46  <-- SCF
      7  -4.09420084E+003  6.97790030E+000   2.21808919E-004      26.97  <-- SCF
      8  -4.09420093E+003  6.97507845E+000   4.77363379E-005      27.32  <-- SCF
      9  -4.09420094E+003  6.97484729E+000   2.21385571E-006      27.59  <-- SCF
     10  -4.09420094E+003  6.97457917E+000   5.82137998E-007      27.84  <-- SCF
     11  -4.09420094E+003  6.97453079E+000   3.75685081E-007      28.08  <-- SCF
------------------------------------------------------------------------ <-- SCF
 
Final energy, E             =  -4094.161433481     eV
Final free energy (E-TS)    =  -4094.200940138     eV
(energies not corrected for finite basis set)
 
NB est. 0K energy (E-0.5TS)      =  -4094.181186810     eV
 

 ******************************** Symmetrised Forces ********************************
 *                                                                                  *
 *                           Cartesian components (eV/A)                            *
 * -------------------------------------------------------------------------------- *
 *                         x                    y                    z              *
 *                                                                                  *
 * Sn              1     -0.35577              1.08658             -2.79495         *
 * Sn              2      0.35577             -1.08658              2.79495         *
 *                                                                                  *
 ************************************************************************************

 *********** Symmetrised Stress Tensor ***********
 *                                               *
 *          Cartesian components (GPa)           *
 * --------------------------------------------- *
 *             x             y             z     *
 *                                               *
 *  x     11.146532     -2.141698      0.123669  *
 *  y     -2.141698     11.315659     -1.433717  *
 *  z      0.123669     -1.433717     14.330589  *
 *                                               *
 *  Pressure:  -12.2643                          *
 *                                               *
 *************************************************
  
 +------------+-------------+-------------+-----------------+ <-- min LBFGS
 |    Step    |   lambda    |   F.delta'  |    enthalpy     | <-- min LBFGS
 +------------+-------------+-------------+-----------------+ <-- min LBFGS
 |  previous  |    0.000000 |    0.329993 |    -4093.746789 | <-- min LBFGS
 | trial step |    1.000000 |    0.279484 |    -4093.863163 | <-- min LBFGS
 |  line step |    6.430261 |    0.058222 |    -4094.200940 | <-- min LBFGS
 +------------+-------------+-------------+-----------------+ <-- min LBFGS
  
 LBFGS: finished iteration     1 with enthalpy= -4.09420094E+003 eV
  
 +-----------+-----------------+-----------------+------------+-----+ <-- LBFGS
 | Parameter |      value      |    tolerance    |    units   | OK? | <-- LBFGS
 +-----------+-----------------+-----------------+------------+-----+ <-- LBFGS
 |  dE/ion   |   2.270755E-001 |   2.000000E-005 |         eV | No  | <-- LBFGS
 |  |F|max   |   3.019766E+000 |   5.000000E-002 |       eV/A | No  | <-- LBFGS
 |  |dR|max  |   1.966176E-002 |   1.000000E-003 |          A | No  | <-- LBFGS
 |   Smax    |   1.433059E+001 |   1.000000E-001 |        GPa | No  | <-- LBFGS
 +-----------+-----------------+-----------------+------------+-----+ <-- LBFGS
  

================================================================================
 Starting LBFGS iteration          2 ...
================================================================================
  
 +------------+-------------+-------------+-----------------+ <-- min LBFGS
 |    Step    |   lambda    |   F.delta'  |    enthalpy     | <-- min LBFGS
 +------------+-------------+-------------+-----------------+ <-- min LBFGS
 |  previous  |    0.000000 |    0.188388 |    -4094.200940 | <-- min LBFGS
 +------------+-------------+-------------+-----------------+ <-- min LBFGS
  
 geom_check_lambda: WARNING - unit cell strain > 10% and working with fixed basis size
 geom_check_lambda:         - suggest you reconsider your initial cell vectors
 geom_check_lambda:           and/or change to fixed basis quality calculation, 
 geom_check_lambda:           i.e. fixed_npw=.false.

--------------------------------------------------------------------------------
 LBFGS: starting iteration         2 with trial guess (lambda=  1.000000)
--------------------------------------------------------------------------------

                           -------------------------------
                                      Unit Cell
                           -------------------------------
        Real Lattice(A)              Reciprocal Lattice(1/A)
     3.7639700     0.0187496    -0.0104756        1.666549035   0.683209950   0.235321351
    -1.6175787     3.9645102    -0.0544726       -0.006623968   1.588518746   0.463136225
    -0.0791699    -1.0668508     3.6580772        0.004673823   0.025611214   1.725190134

                       Lattice parameters(A)       Cell Angles
                    a =      3.764031          alpha =  105.278839
                    b =      4.282157          beta  =   91.423238
                    c =      3.811295          gamma =  111.906638

                Current cell volume =            54.457836 A**3

                           -------------------------------
                                     Cell Contents
                           -------------------------------

            xxxxxxxxxxxxxxxxxxxxxxxxxxxxxxxxxxxxxxxxxxxxxxxxxxxxxxxxxxxxxxxxx
            x  Element         Atom        Fractional coordinates of atoms  x
            x                 Number           u          v          w      x
            x---------------------------------------------------------------x
            x  Sn                1         0.065866  -0.000570   0.151127   x
            x  Sn                2         0.433106   0.677036   0.404525   x
            xxxxxxxxxxxxxxxxxxxxxxxxxxxxxxxxxxxxxxxxxxxxxxxxxxxxxxxxxxxxxxxxx


------------------------------------------------------------------------ <-- SCF
SCF loop      Energy           Fermi           Energy gain       Timer   <-- SCF
                               energy          per atom          (sec)   <-- SCF
------------------------------------------------------------------------ <-- SCF
Initial  -4.09736663E+003  0.00000000E+000                        30.12  <-- SCF
      1  -4.09747743E+003  7.46032518E+000   5.53998802E-002      30.45  <-- SCF
      2  -4.09758716E+003  7.45925946E+000   5.48668394E-002      31.00  <-- SCF
      3  -4.09437703E+003  7.26888345E+000  -1.60506560E+000      31.42  <-- SCF
      4  -4.09436840E+003  7.29132741E+000  -4.31638286E-003      31.87  <-- SCF
      5  -4.09437043E+003  7.27752871E+000   1.01627967E-003      32.44  <-- SCF
      6  -4.09437026E+003  7.27323482E+000  -8.46240670E-005      32.91  <-- SCF
      7  -4.09437019E+003  7.27259317E+000  -3.42933860E-005      33.26  <-- SCF
      8  -4.09437020E+003  7.27233860E+000   3.34239935E-006      33.52  <-- SCF
      9  -4.09437020E+003  7.27214389E+000   8.79160778E-007      33.76  <-- SCF
------------------------------------------------------------------------ <-- SCF
 
Final energy, E             =  -4094.343700576     eV
Final free energy (E-TS)    =  -4094.370201732     eV
(energies not corrected for finite basis set)
 
NB est. 0K energy (E-0.5TS)      =  -4094.356951154     eV
 

 ******************************** Symmetrised Forces ********************************
 *                                                                                  *
 *                           Cartesian components (eV/A)                            *
 * -------------------------------------------------------------------------------- *
 *                         x                    y                    z              *
 *                                                                                  *
 * Sn              1     -0.48697              1.06327             -2.66688         *
 * Sn              2      0.48697             -1.06327              2.66688         *
 *                                                                                  *
 ************************************************************************************

 *********** Symmetrised Stress Tensor ***********
 *                                               *
 *          Cartesian components (GPa)           *
 * --------------------------------------------- *
 *             x             y             z     *
 *                                               *
 *  x     11.641371     -2.174367      0.367842  *
 *  y     -2.174367     14.446967     -2.082854  *
 *  z      0.367842     -2.082854      9.038304  *
 *                                               *
 *  Pressure:  -11.7089                          *
 *                                               *
 *************************************************
  
 +------------+-------------+-------------+-----------------+ <-- min LBFGS
 |    Step    |   lambda    |   F.delta'  |    enthalpy     | <-- min LBFGS
 +------------+-------------+-------------+-----------------+ <-- min LBFGS
 |  previous  |    0.000000 |    0.188388 |    -4094.200940 | <-- min LBFGS
 | trial step |    1.000000 |    0.107172 |    -4094.370202 | <-- min LBFGS
 +------------+-------------+-------------+-----------------+ <-- min LBFGS
  
 geom_check_lambda: WARNING - unit cell strain > 10% and working with fixed basis size
 geom_check_lambda:         - suggest you reconsider your initial cell vectors
 geom_check_lambda:           and/or change to fixed basis quality calculation, 
 geom_check_lambda:           i.e. fixed_npw=.false.

--------------------------------------------------------------------------------
 LBFGS: improving iteration         2 with line minimization (lambda=  1.726053)
--------------------------------------------------------------------------------
 
+---------------- MEMORY AND SCRATCH DISK ESTIMATES PER PROCESS --------------+
|                                                     Memory          Disk    |
| Model and support data                               41.8 MB         0.0 MB |
| Electronic energy minimisation requirements           6.6 MB         0.0 MB |
| Geometry minimisation requirements                    8.8 MB         0.0 MB |
|                                               ----------------------------- |
| Approx. total storage required per process           57.2 MB         0.0 MB |
|                                                                             |
| Requirements will fluctuate during execution and may exceed these estimates |
+-----------------------------------------------------------------------------+
 

                           -------------------------------
                                      Unit Cell
                           -------------------------------
        Real Lattice(A)              Reciprocal Lattice(1/A)
     3.7658564     0.0259203    -0.0128853        1.664660846   0.674436530   0.246013354
    -1.6111617     3.9999600    -0.0637418       -0.009188159   1.574801063   0.482564919
    -0.0836848    -1.0879733     3.5488957        0.005879019   0.030733787   1.780022673

                       Lattice parameters(A)       Cell Angles
                    a =      3.765968          alpha =  106.110122
                    b =      4.312724          beta  =   91.594504
                    c =      3.712863          gamma =  111.539225

                Current cell volume =            53.318278 A**3

                           -------------------------------
                                     Cell Contents
                           -------------------------------

            xxxxxxxxxxxxxxxxxxxxxxxxxxxxxxxxxxxxxxxxxxxxxxxxxxxxxxxxxxxxxxxxx
            x  Element         Atom        Fractional coordinates of atoms  x
            x                 Number           u          v          w      x
            x---------------------------------------------------------------x
            x  Sn                1         0.065829  -0.000307   0.149241   x
            x  Sn                2         0.433144   0.676772   0.406411   x
            xxxxxxxxxxxxxxxxxxxxxxxxxxxxxxxxxxxxxxxxxxxxxxxxxxxxxxxxxxxxxxxxx


------------------------------------------------------------------------ <-- SCF
SCF loop      Energy           Fermi           Energy gain       Timer   <-- SCF
                               energy          per atom          (sec)   <-- SCF
------------------------------------------------------------------------ <-- SCF
Initial  -4.09602621E+003  0.00000000E+000                        35.76  <-- SCF
      1  -4.09606768E+003  7.70941382E+000   2.07342895E-002      36.08  <-- SCF
      2  -4.09613005E+003  7.70880698E+000   3.11897815E-002      36.63  <-- SCF
      3  -4.09443383E+003  7.53894851E+000  -8.48112547E-001      37.05  <-- SCF
      4  -4.09443166E+003  7.55598684E+000  -1.08542696E-003      37.51  <-- SCF
      5  -4.09443246E+003  7.54880107E+000   3.98249207E-004      38.09  <-- SCF
      6  -4.09443238E+003  7.54645850E+000  -3.83377572E-005      38.57  <-- SCF
      7  -4.09443233E+003  7.54631890E+000  -2.19206576E-005      38.86  <-- SCF
      8  -4.09443234E+003  7.54623673E+000   2.02110154E-006      39.11  <-- SCF
      9  -4.09443234E+003  7.54608675E+000   7.30046527E-007      39.36  <-- SCF
------------------------------------------------------------------------ <-- SCF
 
Final energy, E             =  -4094.405119211     eV
Final free energy (E-TS)    =  -4094.432340126     eV
(energies not corrected for finite basis set)
 
NB est. 0K energy (E-0.5TS)      =  -4094.418729668     eV
 

 ******************************** Symmetrised Forces ********************************
 *                                                                                  *
 *                           Cartesian components (eV/A)                            *
 * -------------------------------------------------------------------------------- *
 *                         x                    y                    z              *
 *                                                                                  *
 * Sn              1     -0.54058              0.99641             -2.45455         *
 * Sn              2      0.54058             -0.99641              2.45455         *
 *                                                                                  *
 ************************************************************************************

 *********** Symmetrised Stress Tensor ***********
 *                                               *
 *          Cartesian components (GPa)           *
 * --------------------------------------------- *
 *             x             y             z     *
 *                                               *
 *  x     11.111566     -1.800578      0.824022  *
 *  y     -1.800578     18.043503     -3.229461  *
 *  z      0.824022     -3.229461      5.756101  *
 *                                               *
 *  Pressure:  -11.6371                          *
 *                                               *
 *************************************************
  
 +------------+-------------+-------------+-----------------+ <-- min LBFGS
 |    Step    |   lambda    |   F.delta'  |    enthalpy     | <-- min LBFGS
 +------------+-------------+-------------+-----------------+ <-- min LBFGS
 |  previous  |    0.000000 |    0.188388 |    -4094.200940 | <-- min LBFGS
 | trial step |    1.000000 |    0.107172 |    -4094.370202 | <-- min LBFGS
 |  line step |    1.726053 |    0.045563 |    -4094.432340 | <-- min LBFGS
 +------------+-------------+-------------+-----------------+ <-- min LBFGS
  
 geom_check_lambda: WARNING - unit cell strain > 10% and working with fixed basis size
 geom_check_lambda:         - suggest you reconsider your initial cell vectors
 geom_check_lambda:           and/or change to fixed basis quality calculation, 
 geom_check_lambda:           i.e. fixed_npw=.false.
 LBFGS: finished iteration     2 with enthalpy= -4.09443234E+003 eV
  
 +-----------+-----------------+-----------------+------------+-----+ <-- LBFGS
 | Parameter |      value      |    tolerance    |    units   | OK? | <-- LBFGS
 +-----------+-----------------+-----------------+------------+-----+ <-- LBFGS
 |  dE/ion   |   1.157000E-001 |   2.000000E-005 |         eV | No  | <-- LBFGS
 |  |F|max   |   2.703678E+000 |   5.000000E-002 |       eV/A | No  | <-- LBFGS
 |  |dR|max  |   1.760273E-002 |   1.000000E-003 |          A | No  | <-- LBFGS
 |   Smax    |   1.804350E+001 |   1.000000E-001 |        GPa | No  | <-- LBFGS
 +-----------+-----------------+-----------------+------------+-----+ <-- LBFGS
  

================================================================================
 Starting LBFGS iteration          3 ...
================================================================================
  
 +------------+-------------+-------------+-----------------+ <-- min LBFGS
 |    Step    |   lambda    |   F.delta'  |    enthalpy     | <-- min LBFGS
 +------------+-------------+-------------+-----------------+ <-- min LBFGS
 |  previous  |    0.000000 |    0.217287 |    -4094.432340 | <-- min LBFGS
 +------------+-------------+-------------+-----------------+ <-- min LBFGS
  
 geom_check_lambda: WARNING - unit cell strain > 10% and working with fixed basis size
 geom_check_lambda:         - suggest you reconsider your initial cell vectors
 geom_check_lambda:           and/or change to fixed basis quality calculation, 
 geom_check_lambda:           i.e. fixed_npw=.false.

--------------------------------------------------------------------------------
 LBFGS: starting iteration         3 with trial guess (lambda=  1.000000)
--------------------------------------------------------------------------------

                           -------------------------------
                                      Unit Cell
                           -------------------------------
        Real Lattice(A)              Reciprocal Lattice(1/A)
     3.7302182     0.0378684    -0.0176505        1.678778089   0.673540571   0.256601409
    -1.5836081     3.9698246    -0.0596700       -0.013730653   1.584747340   0.498200928
    -0.0913873    -1.0796962     3.4319304        0.008395258   0.031017573   1.840783857

                       Lattice parameters(A)       Cell Angles
                    a =      3.730452          alpha =  106.411242
                    b =      4.274445          beta  =   91.888162
                    c =      3.598922          gamma =  111.159515

                Current cell volume =            50.750207 A**3

                           -------------------------------
                                     Cell Contents
                           -------------------------------

            xxxxxxxxxxxxxxxxxxxxxxxxxxxxxxxxxxxxxxxxxxxxxxxxxxxxxxxxxxxxxxxxx
            x  Element         Atom        Fractional coordinates of atoms  x
            x                 Number           u          v          w      x
            x---------------------------------------------------------------x
            x  Sn                1         0.065705   0.000100   0.147098   x
            x  Sn                2         0.433267   0.676365   0.408554   x
            xxxxxxxxxxxxxxxxxxxxxxxxxxxxxxxxxxxxxxxxxxxxxxxxxxxxxxxxxxxxxxxxx


------------------------------------------------------------------------ <-- SCF
SCF loop      Energy           Fermi           Energy gain       Timer   <-- SCF
                               energy          per atom          (sec)   <-- SCF
------------------------------------------------------------------------ <-- SCF
Initial  -4.09478180E+003  0.00000000E+000                        41.58  <-- SCF
      1  -4.09703647E+003  8.33205208E+000   1.12733160E+000      41.90  <-- SCF
      2  -4.09714718E+003  8.33149339E+000   5.53552195E-002      42.43  <-- SCF
      3  -4.09454637E+003  8.16673550E+000  -1.30040315E+000      42.78  <-- SCF
      4  -4.09457514E+003  8.22039295E+000   1.43843603E-002      43.23  <-- SCF
      5  -4.09456140E+003  8.20126863E+000  -6.86884398E-003      43.67  <-- SCF
      6  -4.09455998E+003  8.19220698E+000  -7.11903162E-004      44.13  <-- SCF
      7  -4.09455978E+003  8.19349579E+000  -1.00157416E-004      44.62  <-- SCF
      8  -4.09455979E+003  8.19315415E+000   4.87596562E-006      44.91  <-- SCF
      9  -4.09455979E+003  8.19339753E+000  -4.86345017E-008      45.18  <-- SCF
------------------------------------------------------------------------ <-- SCF
 
Final energy, E             =  -4094.535696576     eV
Final free energy (E-TS)    =  -4094.559788701     eV
(energies not corrected for finite basis set)
 
NB est. 0K energy (E-0.5TS)      =  -4094.547742638     eV
 

 ******************************** Symmetrised Forces ********************************
 *                                                                                  *
 *                           Cartesian components (eV/A)                            *
 * -------------------------------------------------------------------------------- *
 *                         x                    y                    z              *
 *                                                                                  *
 * Sn              1     -0.65641              0.96526             -2.40650         *
 * Sn              2      0.65641             -0.96526              2.40650         *
 *                                                                                  *
 ************************************************************************************

 *********** Symmetrised Stress Tensor ***********
 *                                               *
 *          Cartesian components (GPa)           *
 * --------------------------------------------- *
 *             x             y             z     *
 *                                               *
 *  x     -0.187201     -1.341239      1.028756  *
 *  y     -1.341239      8.222865     -4.127702  *
 *  z      1.028756     -4.127702      0.462625  *
 *                                               *
 *  Pressure:   -2.8328                          *
 *                                               *
 *************************************************
  
 +------------+-------------+-------------+-----------------+ <-- min LBFGS
 |    Step    |   lambda    |   F.delta'  |    enthalpy     | <-- min LBFGS
 +------------+-------------+-------------+-----------------+ <-- min LBFGS
 |  previous  |    0.000000 |    0.217287 |    -4094.432340 | <-- min LBFGS
 | trial step |    1.000000 |    0.080529 |    -4094.559789 | <-- min LBFGS
 +------------+-------------+-------------+-----------------+ <-- min LBFGS
  
 geom_check_lambda: WARNING - unit cell strain > 10% and working with fixed basis size
 geom_check_lambda:         - suggest you reconsider your initial cell vectors
 geom_check_lambda:           and/or change to fixed basis quality calculation, 
 geom_check_lambda:           i.e. fixed_npw=.false.

--------------------------------------------------------------------------------
 LBFGS: improving iteration         3 with line minimization (lambda=  1.588845)
--------------------------------------------------------------------------------

                           -------------------------------
                                      Unit Cell
                           -------------------------------
        Real Lattice(A)              Reciprocal Lattice(1/A)
     3.7092328     0.0449040    -0.0204564        1.687235866   0.672967083   0.263202438
    -1.5673832     3.9520795    -0.0572723       -0.016455629   1.590677002   0.507906116
    -0.0959229    -1.0748223     3.3630559        0.009982698   0.031182419   1.878546953

                       Lattice parameters(A)       Cell Angles
                    a =      3.709561          alpha =  106.598826
                    b =      4.251929          beta  =   92.068302
                    c =      3.531938          gamma =  110.932665

                Current cell volume =            49.266048 A**3

                           -------------------------------
                                     Cell Contents
                           -------------------------------

            xxxxxxxxxxxxxxxxxxxxxxxxxxxxxxxxxxxxxxxxxxxxxxxxxxxxxxxxxxxxxxxxx
            x  Element         Atom        Fractional coordinates of atoms  x
            x                 Number           u          v          w      x
            x---------------------------------------------------------------x
            x  Sn                1         0.065633   0.000340   0.145836   x
            x  Sn                2         0.433340   0.676125   0.409816   x
            xxxxxxxxxxxxxxxxxxxxxxxxxxxxxxxxxxxxxxxxxxxxxxxxxxxxxxxxxxxxxxxxx


------------------------------------------------------------------------ <-- SCF
SCF loop      Energy           Fermi           Energy gain       Timer   <-- SCF
                               energy          per atom          (sec)   <-- SCF
------------------------------------------------------------------------ <-- SCF
Initial  -4.09462164E+003  0.00000000E+000                        47.35  <-- SCF
      1  -4.09544518E+003  8.66341128E+000   4.11772199E-001      47.67  <-- SCF
      2  -4.09548586E+003  8.66319071E+000   2.03363054E-002      48.24  <-- SCF
      3  -4.09457177E+003  8.58254820E+000  -4.57043821E-001      48.59  <-- SCF
      4  -4.09458533E+003  8.61471142E+000   6.78336658E-003      49.06  <-- SCF
      5  -4.09458046E+003  8.60282818E+000  -2.43968669E-003      49.50  <-- SCF
      6  -4.09457993E+003  8.59689094E+000  -2.63657523E-004      49.95  <-- SCF
      7  -4.09457980E+003  8.59820268E+000  -6.28470221E-005      50.41  <-- SCF
      8  -4.09457981E+003  8.59811385E+000   2.61247696E-006      50.68  <-- SCF
      9  -4.09457981E+003  8.59830139E+000   3.31126753E-007      50.93  <-- SCF
------------------------------------------------------------------------ <-- SCF
 
Final energy, E             =  -4094.562726853     eV
Final free energy (E-TS)    =  -4094.579808101     eV
(energies not corrected for finite basis set)
 
NB est. 0K energy (E-0.5TS)      =  -4094.571267477     eV
 

 ******************************** Symmetrised Forces ********************************
 *                                                                                  *
 *                           Cartesian components (eV/A)                            *
 * -------------------------------------------------------------------------------- *
 *                         x                    y                    z              *
 *                                                                                  *
 * Sn              1     -0.71803              0.91249             -2.36694         *
 * Sn              2      0.71803             -0.91249              2.36694         *
 *                                                                                  *
 ************************************************************************************

 *********** Symmetrised Stress Tensor ***********
 *                                               *
 *          Cartesian components (GPa)           *
 * --------------------------------------------- *
 *             x             y             z     *
 *                                               *
 *  x     -7.395222     -1.131680      1.051061  *
 *  y     -1.131680      2.270475     -4.771150  *
 *  z      1.051061     -4.771150     -2.808489  *
 *                                               *
 *  Pressure:    2.6444                          *
 *                                               *
 *************************************************
  
 +------------+-------------+-------------+-----------------+ <-- min LBFGS
 |    Step    |   lambda    |   F.delta'  |    enthalpy     | <-- min LBFGS
 +------------+-------------+-------------+-----------------+ <-- min LBFGS
 |  previous  |    0.000000 |    0.217287 |    -4094.432340 | <-- min LBFGS
 | trial step |    1.000000 |    0.080529 |    -4094.559789 | <-- min LBFGS
 |  line step |    1.588845 |   -0.001271 |    -4094.579808 | <-- min LBFGS
 +------------+-------------+-------------+-----------------+ <-- min LBFGS
  
 geom_check_lambda: WARNING - unit cell strain > 10% and working with fixed basis size
 geom_check_lambda:         - suggest you reconsider your initial cell vectors
 geom_check_lambda:           and/or change to fixed basis quality calculation, 
 geom_check_lambda:           i.e. fixed_npw=.false.
 LBFGS: finished iteration     3 with enthalpy= -4.09457981E+003 eV
  
 +-----------+-----------------+-----------------+------------+-----+ <-- LBFGS
 | Parameter |      value      |    tolerance    |    units   | OK? | <-- LBFGS
 +-----------+-----------------+-----------------+------------+-----+ <-- LBFGS
 |  dE/ion   |   7.373399E-002 |   2.000000E-005 |         eV | No  | <-- LBFGS
 |  |F|max   |   2.636405E+000 |   5.000000E-002 |       eV/A | No  | <-- LBFGS
 |  |dR|max  |   1.313003E-002 |   1.000000E-003 |          A | No  | <-- LBFGS
 |   Smax    |   7.395222E+000 |   1.000000E-001 |        GPa | No  | <-- LBFGS
 +-----------+-----------------+-----------------+------------+-----+ <-- LBFGS
  
 LBFGS: WARNING - Geometry optimization failed to converge after          3 steps

================================================================================
 LBFGS: Final Configuration:
================================================================================
 
+---------------- MEMORY AND SCRATCH DISK ESTIMATES PER PROCESS --------------+
|                                                     Memory          Disk    |
| Model and support data                               41.9 MB         0.0 MB |
| Electronic energy minimisation requirements           6.5 MB         0.0 MB |
| Geometry minimisation requirements                    8.7 MB         0.0 MB |
|                                               ----------------------------- |
| Approx. total storage required per process           57.2 MB         0.0 MB |
|                                                                             |
| Requirements will fluctuate during execution and may exceed these estimates |
+-----------------------------------------------------------------------------+
 

                           -------------------------------
                                      Unit Cell
                           -------------------------------
        Real Lattice(A)              Reciprocal Lattice(1/A)
     3.7092328     0.0449040    -0.0204564        1.687235866   0.672967083   0.263202438
    -1.5673832     3.9520795    -0.0572723       -0.016455629   1.590677002   0.507906116
    -0.0959229    -1.0748223     3.3630559        0.009982698   0.031182419   1.878546953

                       Lattice parameters(A)       Cell Angles
                    a =      3.709561          alpha =  106.598826
                    b =      4.251929          beta  =   92.068302
                    c =      3.531938          gamma =  110.932665

                Current cell volume =            49.266048 A**3

                           -------------------------------
                                     Cell Contents
                           -------------------------------

            xxxxxxxxxxxxxxxxxxxxxxxxxxxxxxxxxxxxxxxxxxxxxxxxxxxxxxxxxxxxxxxxx
            x  Element         Atom        Fractional coordinates of atoms  x
            x                 Number           u          v          w      x
            x---------------------------------------------------------------x
            x  Sn                1         0.065633   0.000340   0.145836   x
            x  Sn                2         0.433340   0.676125   0.409816   x
            xxxxxxxxxxxxxxxxxxxxxxxxxxxxxxxxxxxxxxxxxxxxxxxxxxxxxxxxxxxxxxxxx


 LBFGS: Final Enthalpy     = -4.09457981E+003 eV
 LBFGS: Final <frequency>  =    1639.46661 cm-1
 LBFGS: Final bulk modulus =     126.47520 GPa
  
  **********************************************************
  *** There were at least     8 warnings during this run ***
  *** => please check the whole of this file carefully!  ***
  **********************************************************

 ******************************** Symmetrised Forces ********************************
 *                                                                                  *
 *                           Cartesian components (eV/A)                            *
 * -------------------------------------------------------------------------------- *
 *                         x                    y                    z              *
 *                                                                                  *
 * Sn              1     -0.71803              0.91249             -2.36694         *
 * Sn              2      0.71803             -0.91249              2.36694         *
 *                                                                                  *
 ************************************************************************************

 *********** Symmetrised Stress Tensor ***********
 *                                               *
 *          Cartesian components (GPa)           *
 * --------------------------------------------- *
 *             x             y             z     *
 *                                               *
 *  x     -7.395222     -1.131680      1.051061  *
 *  y     -1.131680      2.270475     -4.771150  *
 *  z      1.051061     -4.771150     -2.808489  *
 *                                               *
 *  Pressure:    2.6444                          *
 *                                               *
 *************************************************

 Pseudo atomic calculation performed for Sn 4d10 5s2 5p2

 Converged in 27 iterations to a total energy of -2044.0517 eV

Charge spilling parameter for spin component 1 = 0.27%

            Orbital Populations       
     Ion    Atom   Orbital             Charge
  -------------------------------------------
     Sn     1      Dzz                  1.999
     Sn     1      Dzy                  1.999
     Sn     1      Dzx                  1.999
     Sn     1      Dxx-yy               1.998
     Sn     1      Dxy                  1.998
     Sn     1      S                    1.529
     Sn     1      Px                   0.846
     Sn     1      Py                   0.900
     Sn     1      Pz                   0.812
     Sn     1      S                   -0.080
     Sn     2      Dzz                  1.999
     Sn     2      Dzy                  1.999
     Sn     2      Dzx                  1.999
     Sn     2      Dxx-yy               1.998
     Sn     2      Dxy                  1.998
     Sn     2      S                    1.529
     Sn     2      Px                   0.846
     Sn     2      Py                   0.900
     Sn     2      Pz                   0.812
     Sn     2      S                   -0.080
  -------------------------------------------
                           Total:      28.000
  -------------------------------------------

     Atomic Populations (Mulliken)
     -----------------------------
Species          Ion     s      p      d      f     Total  Charge (e)
=====================================================================
  Sn              1     1.45   2.56   9.99   0.00  14.00     0.00
  Sn              2     1.45   2.56   9.99   0.00  14.00     0.00
=====================================================================

                 Bond                   Population      Length (A)
======================================================================
              Sn 1 -- Sn 2                  -5.19        2.56188
======================================================================

Initialisation time =     12.88 s
Calculation time    =     38.99 s
Finalisation time   =      0.01 s
Total time          =     51.88 s
Peak Memory Use     = 328972 kB
 +-------------------------------------------------+
 |                                                 |
 |      CCC   AA    SSS  TTTTT  EEEEE  PPPP        |
 |     C     A  A  S       T    E      P   P       |
 |     C     AAAA   SS     T    EEE    PPPP        |
 |     C     A  A     S    T    E      P           |
 |      CCC  A  A  SSS     T    EEEEE  P           |
 |                                                 |
 +-------------------------------------------------+
 |                                                 |
 | Welcome to Academic Release CASTEP version 18.1 |          
 | Ab Initio Total Energy Program                  |
 |                                                 |
 | Authors:                                        |
 | M. Segall, M. Probert, C. Pickard, P. Hasnip,   |
 | S. Clark, K. Refson, J. R. Yates, M. Payne      |
 |                                                 |
 | Contributors:                                   |
 | P. Lindan, P. Haynes, J. White, V. Milman,      |
 | N. Govind, M. Gibson, P. Tulip, V. Cocula,      |
 | B. Montanari, D. Quigley, M. Glover,            |
 | L. Bernasconi, A. Perlov, M. Plummer,           |
 | E. McNellis, J. Meyer, J. Gale, D. Jochym       |
 | J. Aarons, B. Walker, R. Gillen, D. Jones       |
 | T. Green, I. J. Bush, C. J. Armstrong,          |
 | E. J. Higgins, E. L. Brown, M. S. McFly,        |
 | J. Wilkins, B-C. Shih, P. J. P. Byrne           |
 |                                                 |
 | Copyright (c) 2000 - 2017                       |
 |                                                 |
 |     Distributed under the terms of an           |
 |     Agreement between the United Kingdom        |
 |     Car-Parrinello (UKCP) Consortium,           |
 |     Daresbury Laboratory and Accelrys, Inc.     |
 |                                                 |
 | Please cite                                     |
 |                                                 |
 |     "First principles methods using CASTEP"     |
 |                                                 |
 |         Zeitschrift fuer Kristallographie       |
 |           220(5-6) pp. 567-570 (2005)           |
 |                                                 |
 | S. J. Clark, M. D. Segall, C. J. Pickard,       |
 | P. J. Hasnip, M. J. Probert, K. Refson,         |
 | M. C. Payne                                     |
 |                                                 |
 |       in all publications arising from          |
 |              your use of CASTEP                 |
 |                                                 |
 +-------------------------------------------------+


 Compiled for linux_x86_64_gfortran4.8 on Thu, 19 Jul 2018 15:33:51 +0100
 from code version 70483bd0ad64+  Sun, 10 Dec 2017 12:18:29 +0000
 Compiler: GNU Fortran 4.8.5; Optimisation: fast
 MATHLIBS: Intel MKL(2018.0.0) (LAPACK version 3.7.0)
 FFT Lib : mkl
 Fundamental constants values: CODATA 2014

 Run started: Sun, 11 Nov 2018 14:26:08 +0000

 Atomic calculation performed for Sn:
 1s2 2s2 2p6 3s2 3p6 3d10 4s2 4p6 4d10 5s2 5p2

 Converged in 79 iterations to an ae energy of -168090.064 eV


 Pseudo atomic calculation performed for Sn 4d10 5s2 5p2

 Converged in 27 iterations to a total energy of -2044.0517 eV

 Calculation not parallelised.

 ************************************ Title ************************************
 

 ***************************** General Parameters ******************************
  
 output verbosity                               : normal  (1)
 write checkpoint data to                       : ./Sn-20052-7061-74.check
 type of calculation                            : geometry optimization
 stress calculation                             : on
 density difference calculation                 : off
 electron localisation func (ELF) calculation   : off
 Hirshfeld analysis                             : off
 unlimited duration calculation
 timing information                             : on
 memory usage estimate                          : on
 write extra output files                       : on
 write final potential to formatted file        : off
 write final density to formatted file          : off
 write structure in CELL formatted file         : on
 write BibTeX reference list                    : off
 write OTFG pseudopotential files               : off
 write electrostatic potential file             : off
 write bands file                               : off
 checkpoint writing                             : off
  
 output         length unit                     : A
 output           mass unit                     : amu
 output           time unit                     : ps
 output         charge unit                     : e
 output           spin unit                     : hbar/2
 output         energy unit                     : eV
 output          force unit                     : eV/A
 output       velocity unit                     : A/ps
 output       pressure unit                     : GPa
 output     inv_length unit                     : 1/A
 output      frequency unit                     : cm-1
 output force constant unit                     : eV/A**2
 output         volume unit                     : A**3
 output   IR intensity unit                     : (D/A)**2/amu
 output         dipole unit                     : D
 output         efield unit                     : eV/A/e
 output        entropy unit                     : J/mol/K
  
 wavefunctions paging                           : none
 random number generator seed                   : randomised (142608426)
 data distribution                              : optimal for this architecture
 optimization strategy                          : maximize speed(+++)

 *********************** Exchange-Correlation Parameters ***********************
  
 using functional                               : Perdew Burke Ernzerhof
 relativistic treatment                         : Koelling-Harmon
 DFT+D: Semi-empirical dispersion correction    : off

 ************************* Pseudopotential Parameters **************************
  
 pseudopotential representation                 : reciprocal space
 <beta|phi> representation                      : reciprocal space
 spin-orbit coupling                            : off

 **************************** Basis Set Parameters *****************************
  
 plane wave basis set cut-off                   :   250.0000   eV
 size of standard grid                          :     1.7500
 size of   fine   gmax                          :    14.1758   1/A
 finite basis set correction                    : none

 **************************** Electronic Parameters ****************************
  
 number of  electrons                           :  28.00    
 net charge of system                           :  0.000    
 treating system as non-spin-polarized
 number of bands                                :         18

 ********************* Electronic Minimization Parameters **********************
  
 Method: Treating system as metallic with density mixing treatment of electrons,
         and number of  SD  steps               :          1
         and number of  CG  steps               :          4
  
 total energy / atom convergence tol.           : 0.1000E-04   eV
 eigen-energy convergence tolerance             : 0.1000E-05   eV
 max force / atom convergence tol.              : ignored
 convergence tolerance window                   :          3   cycles
 max. number of SCF cycles                      :       1000
 number of fixed-spin iterations                :         10
 smearing scheme                                : Gaussian
 smearing width                                 : 0.2000       eV
 Fermi energy convergence tolerance             : 0.2721E-13   eV
 periodic dipole correction                     : NONE

 ************************** Density Mixing Parameters **************************
  
 density-mixing scheme                          : Pulay
 max. length of mixing history                  :         20
 charge density mixing amplitude                : 0.8000    
 cut-off energy for mixing                      :  250.0       eV

 *********************** Population Analysis Parameters ************************
  
 Population analysis with cutoff                :  3.000       A
 Population analysis output                     : summary and pdos components

 ********************** Geometry Optimization Parameters ***********************
  
 optimization method                            : LBFGS
 max. no. of LBFGS updates                      : unbounded
 variable cell method                           : fixed basis size
 max. number of steps                           :          3
 estimated bulk modulus                         :  500.0       GPa
 estimated <frequency>                          :  1668.       cm-1
 geom line minimiser                            : on
 with line minimiser tolerance                  :     0.4000
 total energy convergence tolerance             : 0.2000E-04   eV/atom
        max ionic |force| tolerance             : 0.5000E-01   eV/A
 max ionic |displacement| tolerance             : 0.1000E-02   A
   max |stress component| tolerance             : 0.1000       GPa
 convergence tolerance window                   :          2   steps
 backup results every                           : 2147483647   steps
 write geom trajectory file                     : off

 *******************************************************************************
  

                           -------------------------------
                                      Unit Cell
                           -------------------------------
        Real Lattice(A)                      Reciprocal Lattice(1/A)
     3.7092328     0.0449040    -0.0204564        1.687235866   0.672967083   0.263202438
    -1.5673832     3.9520795    -0.0572723       -0.016455629   1.590677002   0.507906116
    -0.0959229    -1.0748223     3.3630559        0.009982698   0.031182419   1.878546953

                       Lattice parameters(A)       Cell Angles
                    a =      3.709561          alpha =  106.598826
                    b =      4.251929          beta  =   92.068302
                    c =      3.531938          gamma =  110.932665

                       Current cell volume =            49.266048       A**3
                                   density =             4.819140   AMU/A**3
                                           =             8.002371     g/cm^3

                           -------------------------------
                                     Cell Contents
                           -------------------------------
                         Total number of ions in cell =    2
                      Total number of species in cell =    1
                        Max number of any one species =    2

            xxxxxxxxxxxxxxxxxxxxxxxxxxxxxxxxxxxxxxxxxxxxxxxxxxxxxxxxxxxx
            x  Element    Atom        Fractional coordinates of atoms  x
            x            Number           u          v          w      x
            x----------------------------------------------------------x
            x  Sn           1         0.065633   0.000340   0.145836   x 
            x  Sn           2         0.433340   0.676125   0.409816   x 
            xxxxxxxxxxxxxxxxxxxxxxxxxxxxxxxxxxxxxxxxxxxxxxxxxxxxxxxxxxxx


                         No user defined ionic velocities

                           -------------------------------
                                   Details of Species
                           -------------------------------

                               Mass of species in AMU
                                    Sn  118.7100000

                          Electric Quadrupole Moment (Barn)
                                    Sn    1.0000000 No Isotope Defined

                          Files used for pseudopotentials:
                                    Sn 3|2.2|7|7|9|50:51:42(qc=5)

                           -------------------------------
                              k-Points For BZ Sampling
                           -------------------------------
                       MP grid size for SCF calculation is  3  3  3
                            with an offset of   0.000  0.000  0.000
                       Number of kpoints used =            14

                           -------------------------------
                               Symmetry and Constraints
                           -------------------------------

                      Maximum deviation from symmetry = 0.940008E-15     ANG

                      Number of symmetry operations   =           2
                      Number of ionic constraints     =           3
                      Point group of crystal =     2: Ci, -1, -1
                      Space group of crystal =     2: P-1, -P 1

             Set iprint > 1 for details on symmetry rotations/translations

                         Centre of mass is constrained
             Set iprint > 1 for details of linear ionic constraints

                         Number of cell constraints= 0
                         Cell constraints are:  1 2 3 4 5 6

                         External pressure/stress (GPa)
                          0.00000   0.00000   0.00000
                                    0.00000   0.00000
                                              0.00000
  
+---------------- MEMORY AND SCRATCH DISK ESTIMATES PER PROCESS --------------+
|                                                     Memory          Disk    |
| Baseline code, static data and system overhead       36.0 MB         0.0 MB |
| BLAS internal memory storage                          0.0 MB         0.0 MB |
| Model and support data                               28.8 MB         0.0 MB |
| Electronic energy minimisation requirements           5.9 MB         0.0 MB |
| Force calculation requirements                        0.8 MB         0.0 MB |
| Stress calculation requirements                       0.9 MB         0.0 MB |
|                                               ----------------------------- |
| Approx. total storage required per process           70.7 MB         0.0 MB |
|                                                                             |
| Requirements will fluctuate during execution and may exceed these estimates |
[...]
 *  x      0.200720     -0.074142     -0.025447  *
 *  y     -0.074142      0.175321      0.047683  *
 *  z     -0.025447      0.047683      0.152792  *
 *                                               *
 *  Pressure:   -0.1763                          *
 *                                               *
 *************************************************
  
 +------------+-------------+-------------+-----------------+ <-- min LBFGS
 |    Step    |   lambda    |   F.delta'  |    enthalpy     | <-- min LBFGS
 +------------+-------------+-------------+-----------------+ <-- min LBFGS
 |  previous  |    0.000000 |    0.005542 |    -4095.468809 | <-- min LBFGS
 | trial step |    1.000000 |    0.003553 |    -4095.468854 | <-- min LBFGS
 |  line step |    2.786276 |    0.000640 |    -4095.468894 | <-- min LBFGS
 +------------+-------------+-------------+-----------------+ <-- min LBFGS
  
 LBFGS: finished iteration    11 with enthalpy= -4.09546889E+003 eV
  
 +-----------+-----------------+-----------------+------------+-----+ <-- LBFGS
 | Parameter |      value      |    tolerance    |    units   | OK? | <-- LBFGS
 +-----------+-----------------+-----------------+------------+-----+ <-- LBFGS
 |  dE/ion   |   4.265462E-005 |   2.000000E-005 |         eV | No  | <-- LBFGS
 |  |F|max   |   4.034108E-002 |   5.000000E-002 |       eV/A | Yes | <-- LBFGS
 |  |dR|max  |   4.097448E-004 |   1.000000E-003 |          A | Yes | <-- LBFGS
 |   Smax    |   2.007198E-001 |   1.000000E-001 |        GPa | No  | <-- LBFGS
 +-----------+-----------------+-----------------+------------+-----+ <-- LBFGS
  

================================================================================
 Starting LBFGS iteration         12 ...
================================================================================
  
 +------------+-------------+-------------+-----------------+ <-- min LBFGS
 |    Step    |   lambda    |   F.delta'  |    enthalpy     | <-- min LBFGS
 +------------+-------------+-------------+-----------------+ <-- min LBFGS
 |  previous  |    0.000000 |    0.006758 |    -4095.468894 | <-- min LBFGS
 +------------+-------------+-------------+-----------------+ <-- min LBFGS
  

--------------------------------------------------------------------------------
 LBFGS: starting iteration        12 with trial guess (lambda=  1.000000)
--------------------------------------------------------------------------------

                           -------------------------------
                                      Unit Cell
                           -------------------------------
        Real Lattice(A)              Reciprocal Lattice(1/A)
     3.1801540     0.6407486     0.1334481        1.902027441   0.321264814   0.214280016
    -0.7728758     4.2205325     0.5325855       -0.295463831   1.385678133   0.387785415
    -0.1762300    -0.8189617     2.7921311       -0.034547843  -0.279666052   2.166109272

                       Lattice parameters(A)       Cell Angles
                    a =      3.246806          alpha =   98.363239
                    b =      4.323642          beta  =   94.317782
                    c =      2.915090          gamma =   88.703988

                Current cell volume =            40.369205 A**3

                           -------------------------------
                                     Cell Contents
                           -------------------------------

            xxxxxxxxxxxxxxxxxxxxxxxxxxxxxxxxxxxxxxxxxxxxxxxxxxxxxxxxxxxxxxxxx
            x  Element         Atom        Fractional coordinates of atoms  x
            x                 Number           u          v          w      x
            x---------------------------------------------------------------x
            x  Sn                1        -0.000277   0.087275   0.035141   x
            x  Sn                2         0.499250   0.589190   0.520511   x
            xxxxxxxxxxxxxxxxxxxxxxxxxxxxxxxxxxxxxxxxxxxxxxxxxxxxxxxxxxxxxxxxx


------------------------------------------------------------------------ <-- SCF
SCF loop      Energy           Fermi           Energy gain       Timer   <-- SCF
                               energy          per atom          (sec)   <-- SCF
------------------------------------------------------------------------ <-- SCF
Initial  -4.09546526E+003  0.00000000E+000                        68.97  <-- SCF
      1  -4.09547699E+003  1.14766512E+001   5.86253867E-003      69.33  <-- SCF
      2  -4.09547703E+003  1.14766486E+001   2.10104269E-005      69.70  <-- SCF
      3  -4.09546910E+003  1.14768855E+001  -3.96283490E-003      70.08  <-- SCF
      4  -4.09546893E+003  1.14767695E+001  -8.89224631E-005      70.44  <-- SCF
      5  -4.09546893E+003  1.14767387E+001   1.27039069E-006      70.67  <-- SCF
      6  -4.09546893E+003  1.14767281E+001   5.98797680E-007      70.87  <-- SCF
------------------------------------------------------------------------ <-- SCF
 
Final energy, E             =  -4095.468423819     eV
Final free energy (E-TS)    =  -4095.468930869     eV
(energies not corrected for finite basis set)
 
NB est. 0K energy (E-0.5TS)      =  -4095.468677344     eV
 

 ******************************** Symmetrised Forces ********************************
 *                                                                                  *
 *                           Cartesian components (eV/A)                            *
 * -------------------------------------------------------------------------------- *
 *                         x                    y                    z              *
 *                                                                                  *
 * Sn              1     -0.00553             -0.00562             -0.02833         *
 * Sn              2      0.00553              0.00562              0.02833         *
 *                                                                                  *
 ************************************************************************************

 *********** Symmetrised Stress Tensor ***********
 *                                               *
 *          Cartesian components (GPa)           *
 * --------------------------------------------- *
 *             x             y             z     *
 *                                               *
 *  x     -0.041538     -0.022151      0.043497  *
 *  y     -0.022151      0.056817     -0.049439  *
 *  z      0.043497     -0.049439      0.000037  *
 *                                               *
 *  Pressure:   -0.0051                          *
 *                                               *
 *************************************************
  
 +------------+-------------+-------------+-----------------+ <-- min LBFGS
 |    Step    |   lambda    |   F.delta'  |    enthalpy     | <-- min LBFGS
 +------------+-------------+-------------+-----------------+ <-- min LBFGS
 |  previous  |    0.000000 |    0.006758 |    -4095.468894 | <-- min LBFGS
 | trial step |    1.000000 |   -0.001370 |    -4095.468931 | <-- min LBFGS
 +------------+-------------+-------------+-----------------+ <-- min LBFGS
  
 LBFGS: finished iteration    12 with enthalpy= -4.09546893E+003 eV
  
 +-----------+-----------------+-----------------+------------+-----+ <-- LBFGS
 | Parameter |      value      |    tolerance    |    units   | OK? | <-- LBFGS
 +-----------+-----------------+-----------------+------------+-----+ <-- LBFGS
 |  dE/ion   |   1.837950E-005 |   2.000000E-005 |         eV | Yes | <-- LBFGS
 |  |F|max   |   2.940464E-002 |   5.000000E-002 |       eV/A | Yes | <-- LBFGS
 |  |dR|max  |   1.175414E-003 |   1.000000E-003 |          A | No  | <-- LBFGS
 |   Smax    |   5.681745E-002 |   1.000000E-001 |        GPa | Yes | <-- LBFGS
 +-----------+-----------------+-----------------+------------+-----+ <-- LBFGS
  

================================================================================
 Starting LBFGS iteration         13 ...
================================================================================
  
 +------------+-------------+-------------+-----------------+ <-- min LBFGS
 |    Step    |   lambda    |   F.delta'  |    enthalpy     | <-- min LBFGS
 +------------+-------------+-------------+-----------------+ <-- min LBFGS
 |  previous  |    0.000000 |    0.001448 |    -4095.468931 | <-- min LBFGS
 +------------+-------------+-------------+-----------------+ <-- min LBFGS
  

--------------------------------------------------------------------------------
 LBFGS: starting iteration        13 with trial guess (lambda=  1.000000)
--------------------------------------------------------------------------------

                           -------------------------------
                                      Unit Cell
                           -------------------------------
        Real Lattice(A)              Reciprocal Lattice(1/A)
     3.1803530     0.6409225     0.1331541        1.901927573   0.321145522   0.214450239
    -0.7726602     4.2200963     0.5328916       -0.295508109   1.385813867   0.387677383
    -0.1765770    -0.8187418     2.7921251       -0.034302099  -0.279804941   2.166106478

                       Lattice parameters(A)       Cell Angles
                    a =      3.247023          alpha =   98.353328
                    b =      4.323215          beta  =   94.329469
                    c =      2.915044          gamma =   88.700393

                Current cell volume =            40.367658 A**3

                           -------------------------------
                                     Cell Contents
                           -------------------------------

            xxxxxxxxxxxxxxxxxxxxxxxxxxxxxxxxxxxxxxxxxxxxxxxxxxxxxxxxxxxxxxxxx
            x  Element         Atom        Fractional coordinates of atoms  x
            x                 Number           u          v          w      x
            x---------------------------------------------------------------x
            x  Sn                1        -0.000265   0.087235   0.035138   x
            x  Sn                2         0.499238   0.589230   0.520514   x
            xxxxxxxxxxxxxxxxxxxxxxxxxxxxxxxxxxxxxxxxxxxxxxxxxxxxxxxxxxxxxxxxx


------------------------------------------------------------------------ <-- SCF
SCF loop      Energy           Fermi           Energy gain       Timer   <-- SCF
                               energy          per atom          (sec)   <-- SCF
------------------------------------------------------------------------ <-- SCF
Initial  -4.09546833E+003  0.00000000E+000                        71.37  <-- SCF
      1  -4.09546905E+003  1.14762035E+001   3.60862316E-004      71.73  <-- SCF
      2  -4.09546905E+003  1.14762034E+001   1.89666088E-006      71.94  <-- SCF
      3  -4.09546893E+003  1.14760369E+001  -6.03888849E-005      72.22  <-- SCF
      4  -4.09546893E+003  1.14761492E+001   8.10205733E-007      72.43  <-- SCF
      5  -4.09546893E+003  1.14760974E+001   5.40156619E-007      72.63  <-- SCF
------------------------------------------------------------------------ <-- SCF
 
Final energy, E             =  -4095.468438121     eV
Final free energy (E-TS)    =  -4095.468933814     eV
(energies not corrected for finite basis set)
 
NB est. 0K energy (E-0.5TS)      =  -4095.468685968     eV
 

 ******************************** Symmetrised Forces ********************************
 *                                                                                  *
 *                           Cartesian components (eV/A)                            *
 * -------------------------------------------------------------------------------- *
 *                         x                    y                    z              *
 *                                                                                  *
 * Sn              1     -0.00858             -0.00075             -0.02557         *
 * Sn              2      0.00858              0.00075              0.02557         *
 *                                                                                  *
 ************************************************************************************

 *********** Symmetrised Stress Tensor ***********
 *                                               *
 *          Cartesian components (GPa)           *
 * --------------------------------------------- *
 *             x             y             z     *
 *                                               *
 *  x     -0.068961      0.000659      0.003193  *
 *  y      0.000659     -0.059240     -0.013041  *
 *  z      0.003193     -0.013041     -0.058509  *
 *                                               *
 *  Pressure:    0.0622                          *
 *                                               *
 *************************************************
  
 +------------+-------------+-------------+-----------------+ <-- min LBFGS
 |    Step    |   lambda    |   F.delta'  |    enthalpy     | <-- min LBFGS
 +------------+-------------+-------------+-----------------+ <-- min LBFGS
 |  previous  |    0.000000 |    0.001448 |    -4095.468931 | <-- min LBFGS
 | trial step |    1.000000 |    0.000087 |    -4095.468934 | <-- min LBFGS
 +------------+-------------+-------------+-----------------+ <-- min LBFGS
  
 LBFGS: finished iteration    13 with enthalpy= -4.09546893E+003 eV
  
 +-----------+-----------------+-----------------+------------+-----+ <-- LBFGS
 | Parameter |      value      |    tolerance    |    units   | OK? | <-- LBFGS
 +-----------+-----------------+-----------------+------------+-----+ <-- LBFGS
 |  dE/ion   |   1.472420E-006 |   2.000000E-005 |         eV | Yes | <-- LBFGS
 |  |F|max   |   2.697908E-002 |   5.000000E-002 |       eV/A | Yes | <-- LBFGS
 |  |dR|max  |   1.752865E-004 |   1.000000E-003 |          A | Yes | <-- LBFGS
 |   Smax    |   6.896083E-002 |   1.000000E-001 |        GPa | Yes | <-- LBFGS
 +-----------+-----------------+-----------------+------------+-----+ <-- LBFGS
  
 LBFGS: Geometry optimization completed successfully.

================================================================================
 LBFGS: Final Configuration:
================================================================================

                           -------------------------------
                                      Unit Cell
                           -------------------------------
        Real Lattice(A)              Reciprocal Lattice(1/A)
     3.1803530     0.6409225     0.1331541        1.901927573   0.321145522   0.214450239
    -0.7726602     4.2200963     0.5328916       -0.295508109   1.385813867   0.387677383
    -0.1765770    -0.8187418     2.7921251       -0.034302099  -0.279804941   2.166106478

                       Lattice parameters(A)       Cell Angles
                    a =      3.247023          alpha =   98.353328
                    b =      4.323215          beta  =   94.329469
                    c =      2.915044          gamma =   88.700393

                Current cell volume =            40.367658 A**3

                           -------------------------------
                                     Cell Contents
                           -------------------------------

            xxxxxxxxxxxxxxxxxxxxxxxxxxxxxxxxxxxxxxxxxxxxxxxxxxxxxxxxxxxxxxxxx
            x  Element         Atom        Fractional coordinates of atoms  x
            x                 Number           u          v          w      x
            x---------------------------------------------------------------x
            x  Sn                1        -0.000265   0.087235   0.035138   x
            x  Sn                2         0.499238   0.589230   0.520514   x
            xxxxxxxxxxxxxxxxxxxxxxxxxxxxxxxxxxxxxxxxxxxxxxxxxxxxxxxxxxxxxxxxx


 LBFGS: Final Enthalpy     = -4.09546893E+003 eV
 LBFGS: Final <frequency>  =    1197.48705 cm-1
 LBFGS: Final bulk modulus =     623.37329 GPa
  
  **********************************************************
  *** There were at least     1 warnings during this run ***
  *** => please check the whole of this file carefully!  ***
  **********************************************************

 ******************************** Symmetrised Forces ********************************
 *                                                                                  *
 *                           Cartesian components (eV/A)                            *
 * -------------------------------------------------------------------------------- *
 *                         x                    y                    z              *
 *                                                                                  *
 * Sn              1     -0.00858             -0.00075             -0.02557         *
 * Sn              2      0.00858              0.00075              0.02557         *
 *                                                                                  *
 ************************************************************************************

 *********** Symmetrised Stress Tensor ***********
 *                                               *
 *          Cartesian components (GPa)           *
 * --------------------------------------------- *
 *             x             y             z     *
 *                                               *
 *  x     -0.068961      0.000659      0.003193  *
 *  y      0.000659     -0.059240     -0.013041  *
 *  z      0.003193     -0.013041     -0.058509  *
 *                                               *
 *  Pressure:    0.0622                          *
 *                                               *
 *************************************************

 Pseudo atomic calculation performed for Sn 4d10 5s2 5p2

 Converged in 27 iterations to a total energy of -2044.0517 eV

Charge spilling parameter for spin component 1 = 0.29%

            Orbital Populations       
     Ion    Atom   Orbital             Charge
  -------------------------------------------
     Sn     1      Dzz                  1.999
     Sn     1      Dzy                  1.998
     Sn     1      Dzx                  1.999
     Sn     1      Dxx-yy               1.999
     Sn     1      Dxy                  1.999
     Sn     1      S                    1.150
     Sn     1      Px                   0.770
     Sn     1      Py                   0.787
     Sn     1      Pz                   0.760
     Sn     1      S                    0.539
     Sn     2      Dzz                  1.999
     Sn     2      Dzy                  1.998
     Sn     2      Dzx                  1.999
     Sn     2      Dxx-yy               1.999
     Sn     2      Dxy                  1.999
     Sn     2      S                    1.150
     Sn     2      Px                   0.770
     Sn     2      Py                   0.787
     Sn     2      Pz                   0.760
     Sn     2      S                    0.539
  -------------------------------------------
                           Total:      28.000
  -------------------------------------------

     Atomic Populations (Mulliken)
     -----------------------------
Species          Ion     s      p      d      f     Total  Charge (e)
=====================================================================
  Sn              1     1.69   2.32   9.99   0.00  14.00     0.00
  Sn              2     1.69   2.32   9.99   0.00  14.00     0.00
=====================================================================

                 Bond                   Population      Length (A)
======================================================================
              Sn 1 -- Sn 2                  -2.79        2.87461
======================================================================

Initialisation time =     12.77 s
Calculation time    =     60.64 s
Finalisation time   =      0.01 s
Total time          =     73.42 s
Peak Memory Use     = 328972 kB
